Compiler and run-time data
===========================================================================
RASPA 2.0.37
Compiled as a 64-bits application
Compiler: gcc 9.3.0
Compile Date = Mar 18 2020, Compile Time = 13:46:53

Wed Nov 18 15:54:52 2020
Simulation started on Wednesday, November 18.
The start time was 03:54 PM.

Cpu data:    x86_64
Cpu Model:   MacBookPro11,4
Host name:   B126028.local
OS release:  19.6.0
OS type:     Darwin
OS version:  19H15


Simulation
===========================================================================
Dimensions: 3
Random number seed: 1605711292
RASPA directory set to: /Users/leopold/Personal/Programmierung/qm-codes/RASPA2/src/.libs
String appended to output-files: 
Number of cycles: 1
Number of initializing cycles: 0
Number of equilibration cycles: 0
Print every: 1
Triclinic boundary condition applied
Timestep: 0.000500
	Degrees of freedom:                        5
	Translational Degrees of freedom:          3
	Rotational Degrees of freedom:             2
	Degrees of freedom Framework:              0


Mutual consistent basic set of units:
======================================
Unit of temperature: Kelvin
Unit of length:      1e-10 [m]
Unit of time:        1e-12 [s]
Unit of mass:        1.66054e-27 [kg]
Unit of charge:      1.60218e-19 [C/particle]

Derived units and their conversion factors:
===========================================
Unit of energy:              1.66054e-23 [J]
Unit of force:               1.66054e-13 [N]
Unit of pressure:            1.66054e+07 [Pa]
Unit of velocity:            100 [m/s]
Unit of acceleration:        1e-08 [m^2/s]
Unit of diffusion:           1e-08 [m^2/s]
Unit of dipole moment:       1.60218e-29 [C.m]
Unit of electric potential:  0.000103643 [V]
Unit of electric field:      1.03643e+06 [V]
Unit of polarizability:      1.54587e-35 [-]
Unit of Coulomb potential:   167101.0800066561  [K]
Unit of dielectric constant: 0.0000154587       [s^2 C^2/(kg m^3)]
Unit of wave vectors:        5.3088374589       [cm^1]
Boltzmann constant:          0.8314464919       [-]

Internal conversion factors:
===========================================
Energy to Kelvin:                                    1.2027242847
FH correction factor                                 2.0211930949
Heat capacity conversion factor:                    10.0000088723
From Debye to internal units:                        4.8032067991
Isothermal compressibility conversion factor:        0.0000000602

Energy conversion factors:
===========================================
From mdyne/A to kcal/mol/A^2:           143.933
From mdyne/A to kj/mol/A^2:             602.214
From mdyne/A to K/A^2:                  72429.7
From mdyne A/rad^2 to kcal/mol/deg^2:   0.0438444


Properties computed
===========================================================================
Movies: no
Radial Distribution Function: no
Number of molecules GCMC histogram: no
Histogram of the molecule positions: no
Free energy profiles: no
Pore Size Distribution Function: no
End-to-end distance: no
Histogram of the energy of the system: no
Compute thermodynamic factors: no
Framework spacing histograms: no
Residence times histograms: no
Distance histograms: no
Bend Angle histograms: no
Dihedral angle histograms: no
Angle between planes histograms: no
Molecule properties: no
Infra-red spectra: no
Mean-squared displacement using modified order-N algorithm: no
Velocity-autocorrelation function modified order-N algorithm: no
Rotational velocity-autocorrelation function modified order-N algorithm: no
Molecular orientation-autocorrelation function modified order-N algorithm: no
Bond orientation-autocorrelation function modified order-N algorithm: no
Mean-squared displacement (conventional algorithm): no
Velocity-autocorrelation function (conventional algorithm): no
3D density grid for adsorbates: no
Compute cation an/or adsorption sites: no
dcTST snapshots: no
Compute pressure and stress: no


VTK
===========================================================================
VTK fractional-range position framework atoms: [-0.001000,1.001000] [-0.001000,1.001000] [-0.001000,1.001000]
VTK fractional-range position framework bonds: [-0.151000,1.151000] [-0.151000,1.151000] [-0.151000,1.151000]
VTK fractional-range com-position adsorbate molecules: [-0.101000,1.101000] [-0.101000,1.101000] [-0.101000,1.101000]
VTK fractional-range com-position cation molecules: [-0.101000,1.101000] [-0.101000,1.101000] [-0.101000,1.101000]
	3D free energy grid made for the full simulation-cell


Thermo/Baro-stat NHC parameters
===========================================================================
External temperature: 50 [K]
Beta: 0.0240545 [energy unit]
External Pressure: 0 [Pa]


Thermostat chain-length: 3
Timescale parameter for thermostat: 0.150000 [ps]
Barostat chain-length:   3
Timescale parameter for barostat:   0.150000 [ps]

Number of Yoshida-Suzuki decomposition steps: 5
Number of respa steps: 5


Method and settings for electrostatics
===============================================================================
Dielectric constant of the medium : 1.000000
Charge from charge-equilibration: no
Ewald summation is used (exact solution of a periodic system)
Relative precision                : 1e-06
Alpha convergence parameter       : 0.265058
kvec (x,y,z)                      : 8 8 8


CFC-RXMC parameters
===========================================================================
Number of reactions: 0


Rattle parameters
===========================================================================
Distance constraint type: r^2-r^2_0
Bend angle constraint type: theta-theta_0
Dihedral angle constraint type: phi-phi_0
Inversion-bend angle constraint type: chi-chi_0
Out-of-plane distance constraint type: r-r_0


Spectra parameters
===========================================================================
Compute normal modes: no


Minimization parameters
===========================================================================
Generalized coordinates are: Cartesian center-of-mass, elements of the orientational matrix p1,p2,p3 and strain
Potential derivatives are evaluated: analytically
Translation of the system is removed from the generalized Hessian: no
Rotation of the system is removed from the generalized Hessian: no
Maximum step-length: 0.3
Convergence factor: 1
Maximum number of minimization steps: 10000
Use gradients in the line-minimizations: yes
RMS gradient tolerance: 1e-06
Maximum gradient tolerance: 1e-06

Distance constraints: 0
Angle constraints: 0
Dihedral constraints: 0

Improper dihedral constraints: 0

Inversion-bend constraints: 0

Out-of-plane constraints: 0

Harmonic distance constraints: 0
Harmonic angle constraints: 0
Harmonic dihedral constraints: 0

Dihedral mid-point measurements: 0

All framework atoms are fixed

Fixed adsorbate atoms:  
Fixed adsorbate groups (center-of-mass):  
Fixed adsorbate groups (orientation):  

Fixed cation atoms:  
Fixed cation groups (center-of-mass):  
Fixed cation groups (orientation):  


dcTST parameters
===========================================================================
Free energy profiles computed: no
Free energy profiles written every 5000 cycles
Free energy mapping: mapped to a,b,c-coordinates
BarrierPosition:       0.0000000000       0.0000000000       0.0000000000
BarrierNormal:         0.0000000000       0.0000000000       0.0000000000
Start with a molecule on top of the barrier: no
Maximum distance to barrier (e.g. distance to minumum free energy):       0.0000000000 [A]
Maximum trajectory time:      10.0000000000 [ps]
Each configuration is used with 5 different initial velocities


Cbmc parameters
===========================================================================
Biasing method: using only the VDW part
Number of trial positions:                                       10
Number of trial positions (reinsertion):                         10
Number of trial positions (partial reinsertion):                 10
Number of trial positions (identity-change):                     10
Number of trial positions (Gibbs particle transfer):             10
Number of trial positions (insertion/deletion):                  10
Number of trial positions (Widom insertion):                     10
Number of trial positions coupled Torsion-selection:             100
Number of trial positions first bead:                            10
Number of trial positions first bead (reinsertion):              10
Number of trial positions first bead (partial reinsertion):      10
Number of trial positions first bead (identity-change):          10
Number of trial positions first bead (Gibbs particle transfer):  10
Number of trial positions first bead (insertion/deletion):       10
Number of trial positions first bead (Widom insertion):          10
Number of trial moves per open bead:                             150
Target acceptance ratio small-mc scheme:                         0.400000
Energy overlap criteria:                                         1e+07
Minimal Rosenbluth factor:                                       1e-150


Pseudo atoms: 7
===========================================================================
Pseudo Atom[   0] Name UNIT     Oxidation:          Element: H    pdb-name: H    Scat. Types:   1   1 Mass=1.000000000  B-factor:0.000   
                 Charge=1.000000000          Polarization=0.000000000  [A^3] (considered a charged atom and no polarization)  Interactions: yes
                 Anisotropic factor:    0.000 [-] (Absolute), Radius:    1.000 [A], Framework-atom:  no
Pseudo Atom[   1] Name O_co2    Oxidation: +0       Element: O    pdb-name: O    Scat. Types:   9   8 Mass=15.999400000 B-factor:1.000   
                 Charge=-0.350000000         Polarization=0.000000000  [A^3] (considered a charged atom and no polarization)  Interactions: yes
                 Anisotropic factor:    0.000 [-] (Relative), Radius:    0.680 [A], Framework-atom:  no
Pseudo Atom[   2] Name C_co2    Oxidation: +0       Element: C    pdb-name: C    Scat. Types:   7   6 Mass=12.000000000 B-factor:1.000   
                 Charge=0.700000000          Polarization=0.000000000  [A^3] (considered a charged atom and no polarization)  Interactions: yes
                 Anisotropic factor:    0.000 [-] (Relative), Radius:    0.720 [A], Framework-atom:  no
Pseudo Atom[   3] Name C        Oxidation:          Element: C    pdb-name: C    Scat. Types:   7   6 Mass=12.010735897 B-factor:0.000   
                 Charge=0.087791667    (av)  Polarization=1.760000000  [A^3] (considered a charged atom and no polarization)  Interactions: yes
                 Anisotropic factor:    0.000 [-] (Absolute), Radius:    0.750 [A], Framework-atom: yes (charge from structure file)
Pseudo Atom[   4] Name H        Oxidation:          Element: H    pdb-name: H    Scat. Types:   1   1 Mass=1.007940754  B-factor:0.000   
                 Charge=0.060333333    (av)  Polarization=0.666793000  [A^3] (considered a charged atom and no polarization)  Interactions: yes
                 Anisotropic factor:    0.000 [-] (Absolute), Radius:    0.320 [A], Framework-atom: yes (charge from structure file)
Pseudo Atom[   5] Name O        Oxidation:          Element: O    pdb-name: O    Scat. Types:   9   8 Mass=15.999404927 B-factor:0.000   
                 Charge=-0.540833333   (av)  Polarization=0.802000000  [A^3] (considered a charged atom and no polarization)  Interactions: yes
                 Anisotropic factor:    0.000 [-] (Absolute), Radius:    0.640 [A], Framework-atom: yes (charge from structure file)
Pseudo Atom[   6] Name Zn       Oxidation:          Element: Zn   pdb-name: Zn   Scat. Types:  31  30 Mass=65.408728088 B-factor:0.000   
                 Charge=1.211000000    (av)  Polarization=5.750000000  [A^3] (considered a charged atom and no polarization)  Interactions: yes
                 Anisotropic factor:    0.000 [-] (Absolute), Radius:    1.200 [A], Framework-atom: yes (charge from structure file)


Forcefield: Local
===========================================================================
Minimal distance: 1
CutOff VDW : 12.000000 (144.000000)
CutOff VDW switching on: 10.800000 (116.640000)
CutOff charge-charge : 12.000000 (144.000000)
CutOff charge-charge switching on: 7.800000 (60.840000)
CutOff charge-bonddipole : 12.000000 (144.000000)
CutOff charge-bondipole switching on: 8.400000 (70.560000)
CutOff bonddipole-bonddipole : 12.000000 (144.000000)
CutOff bonddipole-bondipole switching on: 9.000000 (81.000000)
Polarization is neglected
TailCorrections are used
All potentials are unshifted !!!!!!

General mixing rule: Lorentz-Berthelot mixing rules are used FIRST for cross terms
0 cross terms are overwritten using the individual mixing rules from the file 'force_field_mixing_rules.def'
and then 0 terms are overwritten using the specific interactions from the file 'force_field.def'

The force field and all the interactions:
  O_co2 -   O_co2 [LENNARD_JONES] p_0/k_B:  79.00000 [K], p_1: 3.05000 [A], shift/k_B:   0.00000000 [K], tailcorrection: yes
  O_co2 -   C_co2 [LENNARD_JONES] p_0/k_B:  46.18441 [K], p_1: 2.92500 [A], shift/k_B:   0.00000000 [K], tailcorrection: yes
  O_co2 -       C [LENNARD_JONES] p_0/k_B:  64.61143 [K], p_1: 3.24045 [A], shift/k_B:   0.00000000 [K], tailcorrection: yes
  O_co2 -       H [LENNARD_JONES] p_0/k_B:  41.82545 [K], p_1: 2.81055 [A], shift/k_B:   0.00000000 [K], tailcorrection: yes
  O_co2 -       O [LENNARD_JONES] p_0/k_B:  48.84166 [K], p_1: 3.08405 [A], shift/k_B:   0.00000000 [K], tailcorrection: yes
  O_co2 -      Zn [LENNARD_JONES] p_0/k_B:  70.21426 [K], p_1: 2.75580 [A], shift/k_B:   0.00000000 [K], tailcorrection: yes
  C_co2 -   C_co2 [LENNARD_JONES] p_0/k_B:  27.00000 [K], p_1: 2.80000 [A], shift/k_B:   0.00000000 [K], tailcorrection: yes
  C_co2 -       C [LENNARD_JONES] p_0/k_B:  37.77267 [K], p_1: 3.11545 [A], shift/k_B:   0.00000000 [K], tailcorrection: yes
  C_co2 -       H [LENNARD_JONES] p_0/k_B:  24.45169 [K], p_1: 2.68555 [A], shift/k_B:   0.00000000 [K], tailcorrection: yes
  C_co2 -       O [LENNARD_JONES] p_0/k_B:  28.55346 [K], p_1: 2.95905 [A], shift/k_B:   0.00000000 [K], tailcorrection: yes
  C_co2 -      Zn [LENNARD_JONES] p_0/k_B:  41.04816 [K], p_1: 2.63080 [A], shift/k_B:   0.00000000 [K], tailcorrection: yes
      C -       C [LENNARD_JONES] p_0/k_B:  52.84350 [K], p_1: 3.43090 [A], shift/k_B:   0.00000000 [K], tailcorrection: yes
      C -       H [LENNARD_JONES] p_0/k_B:  34.20762 [K], p_1: 3.00100 [A], shift/k_B:   0.00000000 [K], tailcorrection: yes
      C -       O [LENNARD_JONES] p_0/k_B:  39.94594 [K], p_1: 3.27450 [A], shift/k_B:   0.00000000 [K], tailcorrection: yes
      C -      Zn [LENNARD_JONES] p_0/k_B:  57.42587 [K], p_1: 2.94625 [A], shift/k_B:   0.00000000 [K], tailcorrection: yes
      H -       H [LENNARD_JONES] p_0/k_B:  22.14390 [K], p_1: 2.57110 [A], shift/k_B:   0.00000000 [K], tailcorrection: yes
      H -       O [LENNARD_JONES] p_0/k_B:  25.85854 [K], p_1: 2.84460 [A], shift/k_B:   0.00000000 [K], tailcorrection: yes
      H -      Zn [LENNARD_JONES] p_0/k_B:  37.17396 [K], p_1: 2.51635 [A], shift/k_B:   0.00000000 [K], tailcorrection: yes
      O -       O [LENNARD_JONES] p_0/k_B:  30.19630 [K], p_1: 3.11810 [A], shift/k_B:   0.00000000 [K], tailcorrection: yes
      O -      Zn [LENNARD_JONES] p_0/k_B:  43.40989 [K], p_1: 2.78985 [A], shift/k_B:   0.00000000 [K], tailcorrection: yes
     Zn -      Zn [LENNARD_JONES] p_0/k_B:  62.40560 [K], p_1: 2.46160 [A], shift/k_B:   0.00000000 [K], tailcorrection: yes


MoleculeDefinitions:
===========================================================================
Component 0 [CO2] (Adsorbate molecule)

	MoleculeDefinitions: Local
	Component contains (at least some) atoms which are charged
	Component contains no atoms with point dipoles (polarization)
	Component has a net charge of 0.000000

	Ideal chain Rosenbluth weight: 1
	Ideal chain total energy: 0.000000

	Critical temparure [K]: 304.190000
	Critical pressure [Pa]: 7382000.000000
	Acentric factor [-]: 0.228000

	RXMC partition factor ln(q/V) [ln(A^(-3))]:       0.0000000000

	Vapour=stable, Liquid=metastable

	MolFraction:           1.0000000000 [-]
	Compressibility:       0.0000000000 [-]

	Density of the bulk fluid phase:       0.0000000000 [kg/m^3]


	Amount of excess molecules:       0.0000000000 [-]

	Conversion factor molecules/unit cell -> mol/kg:       0.0000000000 [-]
	Conversion factor molecules/unit cell -> mg/g:       0.0000000000 [-]
	Conversion factor molecules/unit cell -> cm^3 STP/gr:       0.0000000000 [-]
	Conversion factor molecules/unit cell -> cm^3 STP/cm^3:       0.0000000000 [-]
	Conversion factor mol/kg -> cm^3 STP/gr:       0.0000000000 [-]
	Conversion factor mol/kg -> cm^3 STP/cm^3:       0.0000000000 [-]

	Partial pressure:         0.00000000000000 [Pa]
	                          0.00000000000000 [Torr]
	                          0.00000000000000 [bar]
	                          0.00000000000000 [atm]

	Fugacity coefficient:      -1.0000000000 [-]

	Partial fugacity:        -0.00000000000000 [Pa]
	                         -0.00000000000000 [Torr]
	                         -0.00000000000000 [bar]
	                         -0.00000000000000 [atm]

	Molecule contains 3 number of atoms
		atom:    0  is of type:    1 [     O_co2] (group: 0)
		atom:    1  is of type:    2 [     C_co2] (group: 0)
		atom:    2  is of type:    1 [     O_co2] (group: 0)

	Molecule contains 0 chirality centers

	Molecule contains 1 number of groups

		group: 0 containing: 3 elements
		-------------------------------------------------
		the group is rigid and linear
		Mass: 43.998800 [a.u.]
		Mass: 3.319715 [kg/m^3]

		Rotational Degrees of freedom: 2
		Diagonalized inertia vector:      43.0575852800
		                                  43.0575852800
		                                   0.0000000000
		number of atoms: 3
			element: 0 atom: 0 [     O_co2] Charge: -0.350000 Anisotropy: 0.000000 Position:  0.000000 -0.000000  1.160000 Connectivity: 2 (1 2 )
			element: 1 atom: 1 [     C_co2] Charge:  0.700000 Anisotropy: 0.000000 Position:  0.000000 -0.000000  0.000000 Connectivity: 1 (0 )
			element: 2 atom: 2 [     O_co2] Charge: -0.350000 Anisotropy: 0.000000 Position:  0.000000 -0.000000 -1.160000 Connectivity: 1 (0 )
		number of permanent dipoles: 0
		number of polarizabilities: 0

		Dipole:           0.0000000000 [D]
		Quadrupole:       2.2621182741       2.2621182741      -4.5242365482 [D Angstrom]
		Quadrupole tensor [D Angstrom]
				       2.2621182741       0.0000000000       0.0000000000
				       0.0000000000       2.2621182741       0.0000000000
				       0.0000000000       0.0000000000      -4.5242365482

	Starting bead for growth               : 0

	Degrees of freedom                     : 0
	Translational degrees of freedom       : 0
	Rotational degrees of freedom          : 0
	Vibrational degrees of freedom         : 0
	Constraint degrees of freedom          : 0

	Number of atoms                        : 3

	Number of constraint bonds             : 0
	Number of constraint bends             : 0
	Number of constraint inversion bends   : 0
	Number of constraint torsions          : 0
	Number of constraint improper torsions : 0
	Number of constraint improper torsions : 0

	Number of bonds                        : 2
	Number of Urey-Bradleys                : 0
	Number of bends                        : 0
	Number of inversion bends              : 0
	Number of torsions                     : 0
	Number of improper torsions            : 0
	Number of improper torsions            : 0

	Number of bond/bond cross terms        : 0
	Number of bond/bend cross terms        : 0
	Number of bend/bend cross terms        : 0
	Number of stretch/torsion cross terms  : 0
	Number of bend/torsion cross terms     : 0

	Number of charges                      : 3
	Number of bond-dipoles                 : 0

	Number of intra Van der Waals                             : 0
	Number of intra charge-charge Coulomb                     : 0
	Number of intra charge-bonddipole Coulomb                 : 0
	Number of intra bonddipole-bonddipole Coulomb             : 0

	Number of excluded intra charge-charge Coulomb                     : 3
	Number of excluded intra charge-bonddipole Coulomb                 : 0
	Number of excluded intra bonddipole-bonddipole Coulomb             : 0

	Number of cbmc-config moves                               : 0

	Particle Moves:             
		ProbabilityTranslationMove:                  33.333333
			TranslationDirection:      XYZ
		Percentage of random translation moves:            0.000000
		Percentage of rotation moves:                      33.333333
		Percentage of random rotation moves:               0.000000
		Percentage of partial reinsertion moves:           0.000000
		Percentage of reinsertion moves:                   33.333333
		Percentage of reinsertion-in-place moves:          0.000000
		Percentage of reinsertion-in-plane moves:          0.000000
		Percentage of identity-change moves:               0.000000
		Percentage of swap (insert/delete) moves:          0.000000
		Percentage of CF swap lambda moves:                0.000000
		Percentage of CB/CFMC swap lambda moves:           0.000000
		Percentage of Widom insertion moves:               0.000000
		Percentage of CF-Widom insertion moves:            0.000000
		Percentage of Gibbs Widom insertion moves:         0.000000
		Percentage of surface-area moves:                  0.000000
		Percentage of Gibbs particle-transfer moves:       0.000000
		Percentage of Gibbs identity-change moves:         0.000000
		Percentage of CF Gibbs lambda-transfer moves:      0.000000
		Percentage of CB/CFMC Gibbs lambda-transfer moves: 0.000000
		Percentage of exchange frac./int. particle moves:  0.000000
		Percentage of fractional mol. to other box moves:  0.000000
		Percentage of lambda-change moves:                 0.000000
		Percentage of fractional to integer moves:         0.000000

	System Moves:
		Percentage of parallel-tempering moves:            0.000000
		Percentage of hyper-parallel-tempering moves:      0.000000
		Percentage of parallel-mol-fraction moves:         0.000000
			   Component A: 0 B: 1
		Percentage of chiral inversion moves:              0.000000
		Percentage of Hybrid-NVE moves:                    0.000000
		Percentage of Hybrid-NPH moves:                    0.000000
		Percentage of Hybrid-NPHPR moves:                  0.000000
		Percentage of volume-change moves:                 0.000000
		Percentage of box-shape-change moves:              0.000000
		Percentage of Gibbs volume-change moves:           0.000000
		Percentage of framework-change moves:              0.000000
		Percentage of framework-shift moves:               0.000000
		Percentage of reactive MC moves:                   0.000000

	Moves are restricted: No
	No biased sampling used for this component

	Number of Bonds: 2
	--------------------------------------------
	Bond interaction 0: A=0 B=1 Type:RIGID_BOND
		r_0=1.1600000000       [A]
	Bond interaction 1: A=0 B=2 Type:RIGID_BOND
		r_0=2.3200000000       [A]


	number of identity-config changes: 1
	--------------------------------------------
	nr fixed 1: 0 

	Number of pockets blocked in a unitcell: 0
		Pockets are NOT blocked for this component



Framework Status
===========================================================================
Lowenstein's rule obeyed by framework
	Framework is modelled as: rigid

	Number of charges:                               864
	Number of bonddipoles:                           0


System Properties
===========================================================================
Unit cell size: 6.999010 15.243900 15.244000
Cell angles (radians)  alpha: 2.054235 beta: 1.724466 gamma: 1.724509
Cell angles (degrees)  alpha: 117.699000 beta: 98.804600 gamma: 98.807100
Number of unitcells [a]: 4
Number of unitcells [b]: 2
Number of unitcells [c]: 2

TRICLINIC Boundary conditions: alpha!=90 or beta!=90 or gamma!=90

Cartesian axis A is collinear with crystallographic axis a
Cartesian axis B is collinear with (axb)xA
Cartesian axis C is collinear with (axb)

lengths of cell vectors:
 27.99604  30.48780  30.48800
cosines of cell angles:
 -0.46483  -0.15307  -0.15311
perpendicular cell widths:
 26.74199  26.09226  26.09261
volume of the cell: 22008.433162596579 (A^3)

Orthogonalization matrix Box
Transforms fractional coordinates abc into orthonormal Cartesian coordinates xyz
Deorthogonalization matrix InverseBox
Transforms orthonormal Cartesian coordinates xyz into fractional coordinates xyz

Box[0]:
	   27.996040000000    -4.667935069171    -4.666651081327
	    0.000000000000    30.128331036252   -15.063746512187
	    0.000000000000     0.000000000000    26.092605326064

Inverse box[0]:
	    0.035719337449     0.005534178037     0.009583371868
	   -0.000000000000     0.033191350653     0.019161984263
	    0.000000000000    -0.000000000000     0.038325034526


Unitcell box[0]:
	    6.999010000000    -2.333967534586    -2.333325540663
	    0.000000000000    15.064165518126    -7.531873256093
	    0.000000000000     0.000000000000    13.046302663032

Unitcell inverse box[0]:
	    0.142877349797     0.022136712150     0.038333487471
	   -0.000000000000     0.066382701305     0.038323968525
	    0.000000000000    -0.000000000000     0.076650069052

lengths of cell vectors (inverse box):
  0.03572   0.03365   0.04391
cosines of cell angles (inverse box):
  0.46638   0.21826   0.16447
perpendicular cell widths (inverse):
  0.03477   0.02969   0.03833
volume of the cell: 22008.433162596579 (A^3)

No replicas are used
Framework is simulated as 'rigid'
Number of framework atoms: 864
Number of framework atoms in the unit cell: 54
Framework Mass: 15595.951412191584 [g/mol]
Framework Density:  1176.716266380320 [kg/m^3]    0.8498225345997 [cm^3/g]
Helium void fraction:    0.00000000
Available pore volume:    0.00000000 [A^3]    0.00000000 [cm^3/g]
Conversion factor from molecule/unit cell -> kmol/m^3: 0.0754501, kmol/m^3 accesible pore volume: inf

Number Of Frameworks (per system): 1
----------------------------------------------------------------------
Framework name: framework_1
Space group: 1
	Identifier: 1
	short international Hermann-Mauguin symbol: P 1
	long international Hermann-Mauguin symbol: P 1
	Hall symbol: P 1
	Number of lattice translations: 1 [ (0,0,0) ]
	acentric/centric: acentric
	chiral: no
	enantiomorphic: no
	number of operators: 1
		'x,y,z'
Framework is simulated as 'rigid'
Shift: 0.000000 0.000000 0.000000
Number of framework atoms: 864
Number of asymmetric atoms: 54
Number of free framework atoms: 0
Number of fixed framework atoms: 864
Number of framework atoms in the unit cell: 54
Framework Mass: 15595.951412191584 [g/mol]
Framework Density:  1176.716266380320 [kg/m^3]
Framework has net charge: 0.000000
         largest charge : 1.211000
         smallest charge: -0.591000

Using FULL Host-guest interaction calculation (for testing purposes)

Current Atom Status
===========================================================================
Number of framework atoms        : 864
Number of cations molecules      : 0
Number of adsorbate molecules    : 1
Component    0 :    1 molecules
Pseudo Atoms    0 [    UNIT]:    0 atoms
Pseudo Atoms    1 [   O_co2]:    2 atoms
Pseudo Atoms    2 [   C_co2]:    1 atoms
Pseudo Atoms    3 [       C]:  384 atoms
Pseudo Atoms    4 [       H]:   96 atoms
Pseudo Atoms    5 [       O]:  288 atoms
Pseudo Atoms    6 [      Zn]:   96 atoms


Current (initial full energy) Energy Status
===========================================================================

Internal energy:
Host stretch energy:                                            0.00000000
Host UreyBradley energy:                                        0.00000000
Host bend energy:                                               0.00000000
Host inversion-bend energy:                                     0.00000000
Host torsion energy:                                            0.00000000
Host improper torsion energy:                                   0.00000000
Host out-of-plane energy:                                       0.00000000
Host stretch/stretch energy:                                    0.00000000
Host bend/bend energy:                                          0.00000000
Host stretch/bend energy:                                       0.00000000
Host stretch/torsion energy:                                    0.00000000
Host bend/torsion energy:                                       0.00000000

Adsorbate stretch energy:                                       0.00000000
Adsorbate UreyBradley energy:                                   0.00000000
Adsorbate bend energy:                                          0.00000000
Adsorbate inversion-bend energy:                                0.00000000
Adsorbate torsion energy:                                       0.00000000
Adsorbate improper torsion energy:                              0.00000000
Adsorbate out-of-plane energy:                                  0.00000000
Adsorbate stretch/stretch energy:                               0.00000000
Adsorbate bend/bend energy:                                     0.00000000
Adsorbate stretch/bend energy:                                  0.00000000
Adsorbate stretch/torsion energy:                               0.00000000
Adsorbate bend/torsion energy:                                  0.00000000
Adsorbate intra VDW energy:                                     0.00000000
Adsorbate intra charge-charge Coulomb energy:                   0.00000000
Adsorbate intra charge-bonddipole Coulomb energy:               0.00000000
Adsorbate intra bonddipole-bonddipole Coulomb energy:           0.00000000

Cation stretch energy:                                          0.00000000
Cation UreyBradley energy:                                      0.00000000
Cation bend energy:                                             0.00000000
Cation inversion-bend energy:                                   0.00000000
Cation torsion energy:                                          0.00000000
Cation improper torsion energy:                                 0.00000000
Cation out-of-plane energy:                                     0.00000000
Cation stretch/stretch energy:                                  0.00000000
Cation bend/bend energy:                                        0.00000000
Cation stretch/bend energy:                                     0.00000000
Cation stretch/torsion energy:                                  0.00000000
Cation bend/torsion energy:                                     0.00000000
Cation intra VDW energy:                                        0.00000000
Cation intra charge-charge Coulomb energy:                      0.00000000
Cation intra charge-bonddipole Coulomb energy:                  0.00000000
Cation intra bonddipole-bonddipole Coulomb energy:              0.00000000

Host/Host energy:                                             0.00000000
	Host/Host VDW energy:                                         0.00000000
	Host/Host Coulomb energy:                                     0.00000000
	Host/Host charge-charge Real energy:                          0.00000000
	Host/Host charge-charge Fourier energy:                       0.00000000
	Host/Host charge-bonddipole Real energy:                      0.00000000
	Host/Host charge-bonddipole Fourier energy:                   0.00000000
	Host/Host bondipole-bonddipole Real energy:                   0.00000000
	Host/Host bondipole-bonddipole Fourier energy:                0.00000000

Host/Adsorbate energy:                                    -3877.74937205
	Host/Adsorbate VDW energy:                                -1912.76277359
	Host/Adsorbate Coulomb energy:                            -1964.98659847
	Host/Adsorbate charge-charge Real energy:                 -1925.06439219
	Host/Adsorbate charge-charge Fourier energy:                -39.92220627
	Host/Adsorbate charge-bonddipole Real energy:                 0.00000000
	Host/Adsorbate charge-bonddipole Fourier energy:              0.00000000
	Host/Adsorbate bondipole-bonddipole Real energy:              0.00000000
	Host/Adsorbate bondipole-bonddipole Fourier energy:           0.00000000

Host/Cation energy:                                           0.00000000
	Host/Cation VDW energy:                                       0.00000000
	Host/Cation Coulomb energy:                                   0.00000000
	Host/Cation charge-charge Real energy:                        0.00000000
	Host/Cation charge-charge Fourier energy:                     0.00000000
	Host/Cation charge-bonddipole Real energy:                    0.00000000
	Host/Cation charge-bonddipole Fourier energy:                 0.00000000
	Host/Cation bondipole-bonddipole Real energy:                 0.00000000
	Host/Cation bondipole-bonddipole Fourier energy:              0.00000000

Adsorbate/Adsorbate energy:                                       -0.07134323
	Adsorbate/Adsorbate VDW energy:                                    0.00000000
	Adsorbate/Adsorbate Coulomb energy:                               -0.07134323
	Adsorbate/Adsorbate charge-charge Real energy:                     0.00000000
	Adsorbate/Adsorbate charge-charge Fourier energy:                 -0.07134323
	Adsorbate/Adsorbate charge-bonddipole Real energy:                 0.00000000
	Adsorbate/Adsorbate charge-bonddipole Fourier energy:              0.00000000
	Adsorbate/Adsorbate bondipole-bonddipole Real energy:              0.00000000
	Adsorbate/Adsorbate bondipole-bonddipole Fourier energy:           0.00000000

Adsorbate/Cation energy:                                           0.00000000
	Adsorbate/Cation VDW energy:                                       0.00000000
	Adsorbate/Cation Coulomb energy:                                   0.00000000
	Adsorbate/Cation charge-charge Real energy:                        0.00000000
	Adsorbate/Cation charge-charge Fourier energy:                     0.00000000
	Adsorbate/Cation charge-bonddipole Real energy:                    0.00000000
	Adsorbate/Cation charge-bonddipole Fourier energy:                 0.00000000
	Adsorbate/Cation bondipole-bonddipole Real energy:                 0.00000000
	Adsorbate/Cation bondipole-bonddipole Fourier energy:              0.00000000

Cation/Cation energy:                                           0.00000000
	Cation/Cation VDW energy:                                       0.00000000
	Cation/Cation Coulomb energy:                                   0.00000000
	Cation/Cation charge-charge Real energy:                        0.00000000
	Cation/Cation charge-charge Fourier energy:                     0.00000000
	Cation/Cation charge-bonddipole Real energy:                    0.00000000
	Cation/Cation charge-bonddipole Fourier energy:                 0.00000000
	Cation/Cation bondipole-bonddipole Real energy:                 0.00000000
	Cation/Cation bondipole-bonddipole Fourier energy:              0.00000000

Polarization energy:
	Host polarization energy:                                     0.00000000
	Adsorbate polarization energy:                                0.00000000
	Cation polarization energy:                                   0.00000000
	Host back-polarization energy:                                     0.00000000
	Adsorbate back-polarization energy:                                0.00000000
	Cation back-polarization energy:                                   0.00000000

Tail-correction energy:                                   -7266.08318686

Distance constraints energy:                                  0.00000000
Angle constraints energy:                                     0.00000000
Dihedral constraints energy:                                  0.00000000
Inversion-bend constraints energy:                            0.00000000
Out-of-plane distance constraints energy:                     0.00000000
Exclusion constraints energy:                                 0.00000000

===================================================================
Total energy: -11143.903902146947
	Total Van der Waals: -1912.762774
	Total Coulomb: -1965.057942

	Total Polarization: 0.000000







+++++++++++++++++++++++++++++++++++++++++++++++++++++++++++++++++++++++++
Starting simulation
+++++++++++++++++++++++++++++++++++++++++++++++++++++++++++++++++++++++++

Total number of variables used in the minimization: 6
Number of cell-variables used in the minimization: 0
Total number of variables used for generalized coordinates in the minimization: 6
Total number of variables used for positions in the minimization: 3
Total number of variables used for orientation in the minimization: 3

Minimization initial volume:   22008.4331625966 [A^3]
Minimization initial energy:  -11143.9039021469 [K]
Minimization initial strain:       0.0000000000 [-]
Minimization initial box:      27.9960400000      -4.6679350692      -4.6666510813[-]
                                0.0000000000      30.1283310363     -15.0637465122[-]
                                0.0000000000       0.0000000000      26.0926053261[-]

Beginning Baker minimization:
-----------------------------
Computing generalized Hessian matrix
Projecting constraints from generalized Hessian matrix
Computing eigenvalues and vectors
Shifting parameter:    -585.1865519430 Lowest eigenvalue:    -473.4084176872
Iteration: 0 Energy:  -11143.9039021473 Volume:   22008.4331625966 RMS gradient: 220.355  Max gradient: 788.711 Number of negative eigenvalues: 2 Number of zero eigenvalues: 0
      Box:      27.9960400000      -4.6679350692      -4.6666510813     Strain derivative:   11185.0145966406     638.5704021057   -1453.9247599004
                 0.0000000000      30.1283310363     -15.0637465122                            638.5704021057   13922.8324871722     844.6876012729
                 0.0000000000       0.0000000000      26.0926053261                          -1453.9247599004     844.6876012729   11306.6105105067
      Lengths:      27.9960400000      30.4878000000      30.4880000000, Angles:     117.6990000000      98.8046000000      98.8071000000

Computing generalized Hessian matrix
Projecting constraints from generalized Hessian matrix
Computing eigenvalues and vectors
Shifting parameter:    -529.8393795906 Lowest eigenvalue:    -320.2547461031
Iteration: 1 Energy:  -11325.0418291917 Volume:   22008.4331625966 RMS gradient: 175.89  Max gradient: 638.8 Number of negative eigenvalues: 1 Number of zero eigenvalues: 0
      Box:      27.9960400000      -4.6679350692      -4.6666510813     Strain derivative:   11611.3062286957     320.5223818969   -1169.1516101400
                 0.0000000000      30.1283310363     -15.0637465122                            320.5223818969   13896.9027710416     591.7611255228
                 0.0000000000       0.0000000000      26.0926053261                          -1169.1516101400     591.7611255228   11593.8769700865
      Lengths:      27.9960400000      30.4878000000      30.4880000000, Angles:     117.6990000000      98.8046000000      98.8071000000

Computing generalized Hessian matrix
Projecting constraints from generalized Hessian matrix
Computing eigenvalues and vectors
Shifting parameter:    -253.0373686490 Lowest eigenvalue:     109.0223785051
Iteration: 2 Energy:  -11485.8419922840 Volume:   22008.4331625966 RMS gradient: 137.488  Max gradient: 493.424 Number of negative eigenvalues: 0 Number of zero eigenvalues: 0
      Box:      27.9960400000      -4.6679350692      -4.6666510813     Strain derivative:   12019.0959575632     -21.3050997720    -935.0544216995
                 0.0000000000      30.1283310363     -15.0637465122                            -21.3050997720   13545.1842573174     321.0495778108
                 0.0000000000       0.0000000000      26.0926053261                           -935.0544216995     321.0495778108   11871.0368601170
      Lengths:      27.9960400000      30.4878000000      30.4880000000, Angles:     117.6990000000      98.8046000000      98.8071000000

Computing generalized Hessian matrix
Projecting constraints from generalized Hessian matrix
Computing eigenvalues and vectors
Shifting parameter:     -14.7159075365 Lowest eigenvalue:      45.6459515823
Iteration: 3 Energy:  -11602.5903624804 Volume:   22008.4331625966 RMS gradient: 44.7893  Max gradient: 187.274 Number of negative eigenvalues: 0 Number of zero eigenvalues: 0
      Box:      27.9960400000      -4.6679350692      -4.6666510813     Strain derivative:   12497.9074431338    -502.0463048843    -288.4934363728
                 0.0000000000      30.1283310363     -15.0637465122                           -502.0463048843   11883.3540721375     -99.5979010696
                 0.0000000000       0.0000000000      26.0926053261                           -288.4934363728     -99.5979010696   11931.6343557780
      Lengths:      27.9960400000      30.4878000000      30.4880000000, Angles:     117.6990000000      98.8046000000      98.8071000000

Computing generalized Hessian matrix
Projecting constraints from generalized Hessian matrix
Computing eigenvalues and vectors
Shifting parameter:      -1.8049726065 Lowest eigenvalue:      -1.8039726065
Iteration: 4 Energy:  -11611.7348846182 Volume:   22008.4331625966 RMS gradient: 3.65402  Max gradient: 18.356 Number of negative eigenvalues: 1 Number of zero eigenvalues: 0
      Box:      27.9960400000      -4.6679350692      -4.6666510813     Strain derivative:   12855.7804867389    -719.7130400169      94.5311949846
                 0.0000000000      30.1283310363     -15.0637465122                           -719.7130400169   11752.6542953153    -217.8974008078
                 0.0000000000       0.0000000000      26.0926053261                             94.5311949846    -217.8974008078   12036.7763256004
      Lengths:      27.9960400000      30.4878000000      30.4880000000, Angles:     117.6990000000      98.8046000000      98.8071000000

Computing generalized Hessian matrix
Projecting constraints from generalized Hessian matrix
Computing eigenvalues and vectors
Shifting parameter:      -0.0040500355 Lowest eigenvalue:      -0.0030500355
Iteration: 5 Energy:  -11611.7628980924 Volume:   22008.4331625966 RMS gradient: 0.0194123  Max gradient: 0.106346 Number of negative eigenvalues: 1 Number of zero eigenvalues: 0
      Box:      27.9960400000      -4.6679350692      -4.6666510813     Strain derivative:   12877.4278368536    -734.9128924292     105.1447121507
                 0.0000000000      30.1283310363     -15.0637465122                           -734.9128924292   11798.7598613036    -226.0753632646
                 0.0000000000       0.0000000000      26.0926053261                            105.1447121507    -226.0753632646   12058.6223319696
      Lengths:      27.9960400000      30.4878000000      30.4880000000, Angles:     117.6990000000      98.8046000000      98.8071000000

Computing generalized Hessian matrix
Projecting constraints from generalized Hessian matrix
Computing eigenvalues and vectors
Shifting parameter:      -0.0000000000 Lowest eigenvalue:    2083.9340419548
Iteration: 6 Energy:  -11611.7628993179 Volume:   22008.4331625966 RMS gradient: 8.28247e-07  Max gradient: 4.75806e-06 Number of negative eigenvalues: 0 Number of zero eigenvalues: 1
      Box:      27.9960400000      -4.6679350692      -4.6666510813     Strain derivative:   12877.5406735387    -734.9794852512     105.2178364149
                 0.0000000000      30.1283310363     -15.0637465122                           -734.9794852512   11799.0401656224    -226.1011308772
                 0.0000000000       0.0000000000      26.0926053261                            105.2178364149    -226.1011308772   12058.7188192303
      Lengths:      27.9960400000      30.4878000000      30.4880000000, Angles:     117.6990000000      98.8046000000      98.8071000000

Computing generalized Hessian matrix
Projecting constraints from generalized Hessian matrix
Computing eigenvalues and vectors
Shifting parameter:      -0.0000000000 Lowest eigenvalue:    2083.9340184342
Iteration: 7 Energy:  -11611.7628993178 Volume:   22008.4331625966 RMS gradient: 1.4543e-12  Max gradient: 4.7924e-12 Number of negative eigenvalues: 0 Number of zero eigenvalues: 1
      Box:      27.9960400000      -4.6679350692      -4.6666510813     Strain derivative:   12877.5406767003    -734.9794855976     105.2178394843
                 0.0000000000      30.1283310363     -15.0637465122                           -734.9794855976   11799.0401794318    -226.1011294696
                 0.0000000000       0.0000000000      26.0926053261                            105.2178394843    -226.1011294696   12058.7188200353
      Lengths:      27.9960400000      30.4878000000      30.4880000000, Angles:     117.6990000000      98.8046000000      98.8071000000

SUCCES: RMS Gradient tolerance 1e-06 reached (1.4543e-12)
        Max Gradient tolerance 1e-06 reached (4.7924e-12)


Variable vector:
================
x: 0 = 5.9338
x: 1 = 17.9039
x: 2 = 15.4665
x: 3 = -1.61101
x: 4 = -1.41006
x: 5 = 0.97743




Gradient vector:
================
Gradient: 0 = 1.63751e-12
Gradient: 1 = -2.37191e-12
Gradient: 2 = -1.40084e-11
Gradient: 3 = 7.33819e-12
Gradient: 4 = 9.4834e-12
Gradient: 5 = -1.58142e-12


Eigenvalues:
============
Eigenvalue: 0 =       0.0000000000
Eigenvalue: 1 =    2083.9340184342
Eigenvalue: 2 =    2655.4365876892
Eigenvalue: 3 =    4893.7392353956
Eigenvalue: 4 =   14492.4312798603
Eigenvalue: 5 =   18668.7585558409


Final energy after minimization:  -11611.7628993178 in 7 steps
Final pressure after minimization: -9238949.6669536419 [Pa]
Final stress after minimization: {{-9716127.364822,554543.330274,-79387.047197},{-,-8902396.819715,170593.704684},{-,-,-9098324.816324}} [Pa]


Volume [A^3]:   22008.4331625966
      Box:      27.9960400000      -4.6679350692      -4.6666510813     Strain derivative:   12877.5406767002    -734.9794855976     105.2178394843
                 0.0000000000      30.1283310363     -15.0637465122                           -734.9794855976   11799.0401794318    -226.1011294697
                 0.0000000000       0.0000000000      26.0926053261                            105.2178394843    -226.1011294697   12058.7188200353
      Final Lengths:      27.9960400000      30.4878000000      30.4880000000, Angles:     117.6990000000      98.8046000000      98.8071000000

Strain derivative from force routines (NOTE: different when fixed atoms are present)
 -11284.5493180912    -734.9794855976     105.2178394843
   -734.9794855976  -12363.0498153596    -226.1011294697
    105.2178394843    -226.1011294697  -12103.3711747561

Forces
Framework[0] Atom: 0  0 0 0
Framework[0] Atom: 1  0 0 0
Framework[0] Atom: 2  0 0 0
Framework[0] Atom: 3  0 0 0
Framework[0] Atom: 4  0 0 0
Framework[0] Atom: 5  0 0 0
Framework[0] Atom: 6  0 0 0
Framework[0] Atom: 7  0 0 0
Framework[0] Atom: 8  0 0 0
Framework[0] Atom: 9  0 0 0
Framework[0] Atom: 10  0 0 0
Framework[0] Atom: 11  0 0 0
Framework[0] Atom: 12  0 0 0
Framework[0] Atom: 13  0 0 0
Framework[0] Atom: 14  0 0 0
Framework[0] Atom: 15  0 0 0
Framework[0] Atom: 16  0 0 0
Framework[0] Atom: 17  0 0 0
Framework[0] Atom: 18  0 0 0
Framework[0] Atom: 19  0 0 0
Framework[0] Atom: 20  0 0 0
Framework[0] Atom: 21  0 0 0
Framework[0] Atom: 22  0 0 0
Framework[0] Atom: 23  0 0 0
Framework[0] Atom: 24  0 0 0
Framework[0] Atom: 25  0 0 0
Framework[0] Atom: 26  0 0 0
Framework[0] Atom: 27  0 0 0
Framework[0] Atom: 28  0 0 0
Framework[0] Atom: 29  0 0 0
Framework[0] Atom: 30  0 0 0
Framework[0] Atom: 31  0 0 0
Framework[0] Atom: 32  0 0 0
Framework[0] Atom: 33  0 0 0
Framework[0] Atom: 34  0 0 0
Framework[0] Atom: 35  0 0 0
Framework[0] Atom: 36  0 0 0
Framework[0] Atom: 37  0 0 0
Framework[0] Atom: 38  0 0 0
Framework[0] Atom: 39  0 0 0
Framework[0] Atom: 40  0 0 0
Framework[0] Atom: 41  0 0 0
Framework[0] Atom: 42  0 0 0
Framework[0] Atom: 43  0 0 0
Framework[0] Atom: 44  0 0 0
Framework[0] Atom: 45  0 0 0
Framework[0] Atom: 46  0 0 0
Framework[0] Atom: 47  0 0 0
Framework[0] Atom: 48  0 0 0
Framework[0] Atom: 49  0 0 0
Framework[0] Atom: 50  0 0 0
Framework[0] Atom: 51  0 0 0
Framework[0] Atom: 52  0 0 0
Framework[0] Atom: 53  0 0 0
Framework[0] Atom: 54  0 0 0
Framework[0] Atom: 55  0 0 0
Framework[0] Atom: 56  0 0 0
Framework[0] Atom: 57  0 0 0
Framework[0] Atom: 58  0 0 0
Framework[0] Atom: 59  0 0 0
Framework[0] Atom: 60  0 0 0
Framework[0] Atom: 61  0 0 0
Framework[0] Atom: 62  0 0 0
Framework[0] Atom: 63  0 0 0
Framework[0] Atom: 64  0 0 0
Framework[0] Atom: 65  0 0 0
Framework[0] Atom: 66  0 0 0
Framework[0] Atom: 67  0 0 0
Framework[0] Atom: 68  0 0 0
Framework[0] Atom: 69  0 0 0
Framework[0] Atom: 70  0 0 0
Framework[0] Atom: 71  0 0 0
Framework[0] Atom: 72  0 0 0
Framework[0] Atom: 73  0 0 0
Framework[0] Atom: 74  0 0 0
Framework[0] Atom: 75  0 0 0
Framework[0] Atom: 76  0 0 0
Framework[0] Atom: 77  0 0 0
Framework[0] Atom: 78  0 0 0
Framework[0] Atom: 79  0 0 0
Framework[0] Atom: 80  0 0 0
Framework[0] Atom: 81  0 0 0
Framework[0] Atom: 82  0 0 0
Framework[0] Atom: 83  0 0 0
Framework[0] Atom: 84  0 0 0
Framework[0] Atom: 85  0 0 0
Framework[0] Atom: 86  0 0 0
Framework[0] Atom: 87  0 0 0
Framework[0] Atom: 88  0 0 0
Framework[0] Atom: 89  0 0 0
Framework[0] Atom: 90  0 0 0
Framework[0] Atom: 91  0 0 0
Framework[0] Atom: 92  0 0 0
Framework[0] Atom: 93  0 0 0
Framework[0] Atom: 94  0 0 0
Framework[0] Atom: 95  0 0 0
Framework[0] Atom: 96  0 0 0
Framework[0] Atom: 97  0 0 0
Framework[0] Atom: 98  0 0 0
Framework[0] Atom: 99  0 0 0
Framework[0] Atom: 100  0 0 0
Framework[0] Atom: 101  0 0 0
Framework[0] Atom: 102  0 0 0
Framework[0] Atom: 103  0 0 0
Framework[0] Atom: 104  0 0 0
Framework[0] Atom: 105  0 0 0
Framework[0] Atom: 106  0 0 0
Framework[0] Atom: 107  0 0 0
Framework[0] Atom: 108  0 0 0
Framework[0] Atom: 109  0 0 0
Framework[0] Atom: 110  0 0 0
Framework[0] Atom: 111  0 0 0
Framework[0] Atom: 112  0 0 0
Framework[0] Atom: 113  0 0 0
Framework[0] Atom: 114  0 0 0
Framework[0] Atom: 115  0 0 0
Framework[0] Atom: 116  0 0 0
Framework[0] Atom: 117  0 0 0
Framework[0] Atom: 118  0 0 0
Framework[0] Atom: 119  0 0 0
Framework[0] Atom: 120  0 0 0
Framework[0] Atom: 121  0 0 0
Framework[0] Atom: 122  0 0 0
Framework[0] Atom: 123  0 0 0
Framework[0] Atom: 124  0 0 0
Framework[0] Atom: 125  0 0 0
Framework[0] Atom: 126  0 0 0
Framework[0] Atom: 127  0 0 0
Framework[0] Atom: 128  0 0 0
Framework[0] Atom: 129  0 0 0
Framework[0] Atom: 130  0 0 0
Framework[0] Atom: 131  0 0 0
Framework[0] Atom: 132  0 0 0
Framework[0] Atom: 133  0 0 0
Framework[0] Atom: 134  0 0 0
Framework[0] Atom: 135  0 0 0
Framework[0] Atom: 136  0 0 0
Framework[0] Atom: 137  0 0 0
Framework[0] Atom: 138  0 0 0
Framework[0] Atom: 139  0 0 0
Framework[0] Atom: 140  0 0 0
Framework[0] Atom: 141  0 0 0
Framework[0] Atom: 142  0 0 0
Framework[0] Atom: 143  0 0 0
Framework[0] Atom: 144  0 0 0
Framework[0] Atom: 145  0 0 0
Framework[0] Atom: 146  0 0 0
Framework[0] Atom: 147  0 0 0
Framework[0] Atom: 148  0 0 0
Framework[0] Atom: 149  0 0 0
Framework[0] Atom: 150  0 0 0
Framework[0] Atom: 151  0 0 0
Framework[0] Atom: 152  0 0 0
Framework[0] Atom: 153  0 0 0
Framework[0] Atom: 154  0 0 0
Framework[0] Atom: 155  0 0 0
Framework[0] Atom: 156  0 0 0
Framework[0] Atom: 157  0 0 0
Framework[0] Atom: 158  0 0 0
Framework[0] Atom: 159  0 0 0
Framework[0] Atom: 160  0 0 0
Framework[0] Atom: 161  0 0 0
Framework[0] Atom: 162  0 0 0
Framework[0] Atom: 163  0 0 0
Framework[0] Atom: 164  0 0 0
Framework[0] Atom: 165  0 0 0
Framework[0] Atom: 166  0 0 0
Framework[0] Atom: 167  0 0 0
Framework[0] Atom: 168  0 0 0
Framework[0] Atom: 169  0 0 0
Framework[0] Atom: 170  0 0 0
Framework[0] Atom: 171  0 0 0
Framework[0] Atom: 172  0 0 0
Framework[0] Atom: 173  0 0 0
Framework[0] Atom: 174  0 0 0
Framework[0] Atom: 175  0 0 0
Framework[0] Atom: 176  0 0 0
Framework[0] Atom: 177  0 0 0
Framework[0] Atom: 178  0 0 0
Framework[0] Atom: 179  0 0 0
Framework[0] Atom: 180  0 0 0
Framework[0] Atom: 181  0 0 0
Framework[0] Atom: 182  0 0 0
Framework[0] Atom: 183  0 0 0
Framework[0] Atom: 184  0 0 0
Framework[0] Atom: 185  0 0 0
Framework[0] Atom: 186  0 0 0
Framework[0] Atom: 187  0 0 0
Framework[0] Atom: 188  0 0 0
Framework[0] Atom: 189  0 0 0
Framework[0] Atom: 190  0 0 0
Framework[0] Atom: 191  0 0 0
Framework[0] Atom: 192  0 0 0
Framework[0] Atom: 193  0 0 0
Framework[0] Atom: 194  0 0 0
Framework[0] Atom: 195  0 0 0
Framework[0] Atom: 196  0 0 0
Framework[0] Atom: 197  0 0 0
Framework[0] Atom: 198  0 0 0
Framework[0] Atom: 199  0 0 0
Framework[0] Atom: 200  0 0 0
Framework[0] Atom: 201  0 0 0
Framework[0] Atom: 202  0 0 0
Framework[0] Atom: 203  0 0 0
Framework[0] Atom: 204  0 0 0
Framework[0] Atom: 205  0 0 0
Framework[0] Atom: 206  0 0 0
Framework[0] Atom: 207  0 0 0
Framework[0] Atom: 208  0 0 0
Framework[0] Atom: 209  0 0 0
Framework[0] Atom: 210  0 0 0
Framework[0] Atom: 211  0 0 0
Framework[0] Atom: 212  0 0 0
Framework[0] Atom: 213  0 0 0
Framework[0] Atom: 214  0 0 0
Framework[0] Atom: 215  0 0 0
Framework[0] Atom: 216  0 0 0
Framework[0] Atom: 217  0 0 0
Framework[0] Atom: 218  0 0 0
Framework[0] Atom: 219  0 0 0
Framework[0] Atom: 220  0 0 0
Framework[0] Atom: 221  0 0 0
Framework[0] Atom: 222  0 0 0
Framework[0] Atom: 223  0 0 0
Framework[0] Atom: 224  0 0 0
Framework[0] Atom: 225  0 0 0
Framework[0] Atom: 226  0 0 0
Framework[0] Atom: 227  0 0 0
Framework[0] Atom: 228  0 0 0
Framework[0] Atom: 229  0 0 0
Framework[0] Atom: 230  0 0 0
Framework[0] Atom: 231  0 0 0
Framework[0] Atom: 232  0 0 0
Framework[0] Atom: 233  0 0 0
Framework[0] Atom: 234  0 0 0
Framework[0] Atom: 235  0 0 0
Framework[0] Atom: 236  0 0 0
Framework[0] Atom: 237  0 0 0
Framework[0] Atom: 238  0 0 0
Framework[0] Atom: 239  0 0 0
Framework[0] Atom: 240  0 0 0
Framework[0] Atom: 241  0 0 0
Framework[0] Atom: 242  0 0 0
Framework[0] Atom: 243  0 0 0
Framework[0] Atom: 244  0 0 0
Framework[0] Atom: 245  0 0 0
Framework[0] Atom: 246  0 0 0
Framework[0] Atom: 247  0 0 0
Framework[0] Atom: 248  0 0 0
Framework[0] Atom: 249  0 0 0
Framework[0] Atom: 250  0 0 0
Framework[0] Atom: 251  0 0 0
Framework[0] Atom: 252  0 0 0
Framework[0] Atom: 253  0 0 0
Framework[0] Atom: 254  0 0 0
Framework[0] Atom: 255  0 0 0
Framework[0] Atom: 256  0 0 0
Framework[0] Atom: 257  0 0 0
Framework[0] Atom: 258  0 0 0
Framework[0] Atom: 259  0 0 0
Framework[0] Atom: 260  0 0 0
Framework[0] Atom: 261  0 0 0
Framework[0] Atom: 262  0 0 0
Framework[0] Atom: 263  0 0 0
Framework[0] Atom: 264  0 0 0
Framework[0] Atom: 265  0 0 0
Framework[0] Atom: 266  0 0 0
Framework[0] Atom: 267  0 0 0
Framework[0] Atom: 268  0 0 0
Framework[0] Atom: 269  0 0 0
Framework[0] Atom: 270  0 0 0
Framework[0] Atom: 271  0 0 0
Framework[0] Atom: 272  0 0 0
Framework[0] Atom: 273  0 0 0
Framework[0] Atom: 274  0 0 0
Framework[0] Atom: 275  0 0 0
Framework[0] Atom: 276  0 0 0
Framework[0] Atom: 277  0 0 0
Framework[0] Atom: 278  0 0 0
Framework[0] Atom: 279  0 0 0
Framework[0] Atom: 280  0 0 0
Framework[0] Atom: 281  0 0 0
Framework[0] Atom: 282  0 0 0
Framework[0] Atom: 283  0 0 0
Framework[0] Atom: 284  0 0 0
Framework[0] Atom: 285  0 0 0
Framework[0] Atom: 286  0 0 0
Framework[0] Atom: 287  0 0 0
Framework[0] Atom: 288  0 0 0
Framework[0] Atom: 289  0 0 0
Framework[0] Atom: 290  0 0 0
Framework[0] Atom: 291  0 0 0
Framework[0] Atom: 292  0 0 0
Framework[0] Atom: 293  0 0 0
Framework[0] Atom: 294  0 0 0
Framework[0] Atom: 295  0 0 0
Framework[0] Atom: 296  0 0 0
Framework[0] Atom: 297  0 0 0
Framework[0] Atom: 298  0 0 0
Framework[0] Atom: 299  0 0 0
Framework[0] Atom: 300  0 0 0
Framework[0] Atom: 301  0 0 0
Framework[0] Atom: 302  0 0 0
Framework[0] Atom: 303  0 0 0
Framework[0] Atom: 304  0 0 0
Framework[0] Atom: 305  0 0 0
Framework[0] Atom: 306  0 0 0
Framework[0] Atom: 307  0 0 0
Framework[0] Atom: 308  0 0 0
Framework[0] Atom: 309  0 0 0
Framework[0] Atom: 310  0 0 0
Framework[0] Atom: 311  0 0 0
Framework[0] Atom: 312  0 0 0
Framework[0] Atom: 313  0 0 0
Framework[0] Atom: 314  0 0 0
Framework[0] Atom: 315  0 0 0
Framework[0] Atom: 316  0 0 0
Framework[0] Atom: 317  0 0 0
Framework[0] Atom: 318  0 0 0
Framework[0] Atom: 319  0 0 0
Framework[0] Atom: 320  0 0 0
Framework[0] Atom: 321  0 0 0
Framework[0] Atom: 322  0 0 0
Framework[0] Atom: 323  0 0 0
Framework[0] Atom: 324  0 0 0
Framework[0] Atom: 325  0 0 0
Framework[0] Atom: 326  0 0 0
Framework[0] Atom: 327  0 0 0
Framework[0] Atom: 328  0 0 0
Framework[0] Atom: 329  0 0 0
Framework[0] Atom: 330  0 0 0
Framework[0] Atom: 331  0 0 0
Framework[0] Atom: 332  0 0 0
Framework[0] Atom: 333  0 0 0
Framework[0] Atom: 334  0 0 0
Framework[0] Atom: 335  0 0 0
Framework[0] Atom: 336  0 0 0
Framework[0] Atom: 337  0 0 0
Framework[0] Atom: 338  0 0 0
Framework[0] Atom: 339  0 0 0
Framework[0] Atom: 340  0 0 0
Framework[0] Atom: 341  0 0 0
Framework[0] Atom: 342  0 0 0
Framework[0] Atom: 343  0 0 0
Framework[0] Atom: 344  0 0 0
Framework[0] Atom: 345  0 0 0
Framework[0] Atom: 346  0 0 0
Framework[0] Atom: 347  0 0 0
Framework[0] Atom: 348  0 0 0
Framework[0] Atom: 349  0 0 0
Framework[0] Atom: 350  0 0 0
Framework[0] Atom: 351  0 0 0
Framework[0] Atom: 352  0 0 0
Framework[0] Atom: 353  0 0 0
Framework[0] Atom: 354  0 0 0
Framework[0] Atom: 355  0 0 0
Framework[0] Atom: 356  0 0 0
Framework[0] Atom: 357  0 0 0
Framework[0] Atom: 358  0 0 0
Framework[0] Atom: 359  0 0 0
Framework[0] Atom: 360  0 0 0
Framework[0] Atom: 361  0 0 0
Framework[0] Atom: 362  0 0 0
Framework[0] Atom: 363  0 0 0
Framework[0] Atom: 364  0 0 0
Framework[0] Atom: 365  0 0 0
Framework[0] Atom: 366  0 0 0
Framework[0] Atom: 367  0 0 0
Framework[0] Atom: 368  0 0 0
Framework[0] Atom: 369  0 0 0
Framework[0] Atom: 370  0 0 0
Framework[0] Atom: 371  0 0 0
Framework[0] Atom: 372  0 0 0
Framework[0] Atom: 373  0 0 0
Framework[0] Atom: 374  0 0 0
Framework[0] Atom: 375  0 0 0
Framework[0] Atom: 376  0 0 0
Framework[0] Atom: 377  0 0 0
Framework[0] Atom: 378  0 0 0
Framework[0] Atom: 379  0 0 0
Framework[0] Atom: 380  0 0 0
Framework[0] Atom: 381  0 0 0
Framework[0] Atom: 382  0 0 0
Framework[0] Atom: 383  0 0 0
Framework[0] Atom: 384  0 0 0
Framework[0] Atom: 385  0 0 0
Framework[0] Atom: 386  0 0 0
Framework[0] Atom: 387  0 0 0
Framework[0] Atom: 388  0 0 0
Framework[0] Atom: 389  0 0 0
Framework[0] Atom: 390  0 0 0
Framework[0] Atom: 391  0 0 0
Framework[0] Atom: 392  0 0 0
Framework[0] Atom: 393  0 0 0
Framework[0] Atom: 394  0 0 0
Framework[0] Atom: 395  0 0 0
Framework[0] Atom: 396  0 0 0
Framework[0] Atom: 397  0 0 0
Framework[0] Atom: 398  0 0 0
Framework[0] Atom: 399  0 0 0
Framework[0] Atom: 400  0 0 0
Framework[0] Atom: 401  0 0 0
Framework[0] Atom: 402  0 0 0
Framework[0] Atom: 403  0 0 0
Framework[0] Atom: 404  0 0 0
Framework[0] Atom: 405  0 0 0
Framework[0] Atom: 406  0 0 0
Framework[0] Atom: 407  0 0 0
Framework[0] Atom: 408  0 0 0
Framework[0] Atom: 409  0 0 0
Framework[0] Atom: 410  0 0 0
Framework[0] Atom: 411  0 0 0
Framework[0] Atom: 412  0 0 0
Framework[0] Atom: 413  0 0 0
Framework[0] Atom: 414  0 0 0
Framework[0] Atom: 415  0 0 0
Framework[0] Atom: 416  0 0 0
Framework[0] Atom: 417  0 0 0
Framework[0] Atom: 418  0 0 0
Framework[0] Atom: 419  0 0 0
Framework[0] Atom: 420  0 0 0
Framework[0] Atom: 421  0 0 0
Framework[0] Atom: 422  0 0 0
Framework[0] Atom: 423  0 0 0
Framework[0] Atom: 424  0 0 0
Framework[0] Atom: 425  0 0 0
Framework[0] Atom: 426  0 0 0
Framework[0] Atom: 427  0 0 0
Framework[0] Atom: 428  0 0 0
Framework[0] Atom: 429  0 0 0
Framework[0] Atom: 430  0 0 0
Framework[0] Atom: 431  0 0 0
Framework[0] Atom: 432  0 0 0
Framework[0] Atom: 433  0 0 0
Framework[0] Atom: 434  0 0 0
Framework[0] Atom: 435  0 0 0
Framework[0] Atom: 436  0 0 0
Framework[0] Atom: 437  0 0 0
Framework[0] Atom: 438  0 0 0
Framework[0] Atom: 439  0 0 0
Framework[0] Atom: 440  0 0 0
Framework[0] Atom: 441  0 0 0
Framework[0] Atom: 442  0 0 0
Framework[0] Atom: 443  0 0 0
Framework[0] Atom: 444  0 0 0
Framework[0] Atom: 445  0 0 0
Framework[0] Atom: 446  0 0 0
Framework[0] Atom: 447  0 0 0
Framework[0] Atom: 448  0 0 0
Framework[0] Atom: 449  0 0 0
Framework[0] Atom: 450  0 0 0
Framework[0] Atom: 451  0 0 0
Framework[0] Atom: 452  0 0 0
Framework[0] Atom: 453  0 0 0
Framework[0] Atom: 454  0 0 0
Framework[0] Atom: 455  0 0 0
Framework[0] Atom: 456  0 0 0
Framework[0] Atom: 457  0 0 0
Framework[0] Atom: 458  0 0 0
Framework[0] Atom: 459  0 0 0
Framework[0] Atom: 460  0 0 0
Framework[0] Atom: 461  0 0 0
Framework[0] Atom: 462  0 0 0
Framework[0] Atom: 463  0 0 0
Framework[0] Atom: 464  0 0 0
Framework[0] Atom: 465  0 0 0
Framework[0] Atom: 466  0 0 0
Framework[0] Atom: 467  0 0 0
Framework[0] Atom: 468  0 0 0
Framework[0] Atom: 469  0 0 0
Framework[0] Atom: 470  0 0 0
Framework[0] Atom: 471  0 0 0
Framework[0] Atom: 472  0 0 0
Framework[0] Atom: 473  0 0 0
Framework[0] Atom: 474  0 0 0
Framework[0] Atom: 475  0 0 0
Framework[0] Atom: 476  0 0 0
Framework[0] Atom: 477  0 0 0
Framework[0] Atom: 478  0 0 0
Framework[0] Atom: 479  0 0 0
Framework[0] Atom: 480  0 0 0
Framework[0] Atom: 481  0 0 0
Framework[0] Atom: 482  0 0 0
Framework[0] Atom: 483  0 0 0
Framework[0] Atom: 484  0 0 0
Framework[0] Atom: 485  0 0 0
Framework[0] Atom: 486  0 0 0
Framework[0] Atom: 487  0 0 0
Framework[0] Atom: 488  0 0 0
Framework[0] Atom: 489  0 0 0
Framework[0] Atom: 490  0 0 0
Framework[0] Atom: 491  0 0 0
Framework[0] Atom: 492  0 0 0
Framework[0] Atom: 493  0 0 0
Framework[0] Atom: 494  0 0 0
Framework[0] Atom: 495  0 0 0
Framework[0] Atom: 496  0 0 0
Framework[0] Atom: 497  0 0 0
Framework[0] Atom: 498  0 0 0
Framework[0] Atom: 499  0 0 0
Framework[0] Atom: 500  0 0 0
Framework[0] Atom: 501  0 0 0
Framework[0] Atom: 502  0 0 0
Framework[0] Atom: 503  0 0 0
Framework[0] Atom: 504  0 0 0
Framework[0] Atom: 505  0 0 0
Framework[0] Atom: 506  0 0 0
Framework[0] Atom: 507  0 0 0
Framework[0] Atom: 508  0 0 0
Framework[0] Atom: 509  0 0 0
Framework[0] Atom: 510  0 0 0
Framework[0] Atom: 511  0 0 0
Framework[0] Atom: 512  0 0 0
Framework[0] Atom: 513  0 0 0
Framework[0] Atom: 514  0 0 0
Framework[0] Atom: 515  0 0 0
Framework[0] Atom: 516  0 0 0
Framework[0] Atom: 517  0 0 0
Framework[0] Atom: 518  0 0 0
Framework[0] Atom: 519  0 0 0
Framework[0] Atom: 520  0 0 0
Framework[0] Atom: 521  0 0 0
Framework[0] Atom: 522  0 0 0
Framework[0] Atom: 523  0 0 0
Framework[0] Atom: 524  0 0 0
Framework[0] Atom: 525  0 0 0
Framework[0] Atom: 526  0 0 0
Framework[0] Atom: 527  0 0 0
Framework[0] Atom: 528  0 0 0
Framework[0] Atom: 529  0 0 0
Framework[0] Atom: 530  0 0 0
Framework[0] Atom: 531  0 0 0
Framework[0] Atom: 532  0 0 0
Framework[0] Atom: 533  0 0 0
Framework[0] Atom: 534  0 0 0
Framework[0] Atom: 535  0 0 0
Framework[0] Atom: 536  0 0 0
Framework[0] Atom: 537  0 0 0
Framework[0] Atom: 538  0 0 0
Framework[0] Atom: 539  0 0 0
Framework[0] Atom: 540  0 0 0
Framework[0] Atom: 541  0 0 0
Framework[0] Atom: 542  0 0 0
Framework[0] Atom: 543  0 0 0
Framework[0] Atom: 544  0 0 0
Framework[0] Atom: 545  0 0 0
Framework[0] Atom: 546  0 0 0
Framework[0] Atom: 547  0 0 0
Framework[0] Atom: 548  0 0 0
Framework[0] Atom: 549  0 0 0
Framework[0] Atom: 550  0 0 0
Framework[0] Atom: 551  0 0 0
Framework[0] Atom: 552  0 0 0
Framework[0] Atom: 553  0 0 0
Framework[0] Atom: 554  0 0 0
Framework[0] Atom: 555  0 0 0
Framework[0] Atom: 556  0 0 0
Framework[0] Atom: 557  0 0 0
Framework[0] Atom: 558  0 0 0
Framework[0] Atom: 559  0 0 0
Framework[0] Atom: 560  0 0 0
Framework[0] Atom: 561  0 0 0
Framework[0] Atom: 562  0 0 0
Framework[0] Atom: 563  0 0 0
Framework[0] Atom: 564  0 0 0
Framework[0] Atom: 565  0 0 0
Framework[0] Atom: 566  0 0 0
Framework[0] Atom: 567  0 0 0
Framework[0] Atom: 568  0 0 0
Framework[0] Atom: 569  0 0 0
Framework[0] Atom: 570  0 0 0
Framework[0] Atom: 571  0 0 0
Framework[0] Atom: 572  0 0 0
Framework[0] Atom: 573  0 0 0
Framework[0] Atom: 574  0 0 0
Framework[0] Atom: 575  0 0 0
Framework[0] Atom: 576  0 0 0
Framework[0] Atom: 577  0 0 0
Framework[0] Atom: 578  0 0 0
Framework[0] Atom: 579  0 0 0
Framework[0] Atom: 580  0 0 0
Framework[0] Atom: 581  0 0 0
Framework[0] Atom: 582  0 0 0
Framework[0] Atom: 583  0 0 0
Framework[0] Atom: 584  0 0 0
Framework[0] Atom: 585  0 0 0
Framework[0] Atom: 586  0 0 0
Framework[0] Atom: 587  0 0 0
Framework[0] Atom: 588  0 0 0
Framework[0] Atom: 589  0 0 0
Framework[0] Atom: 590  0 0 0
Framework[0] Atom: 591  0 0 0
Framework[0] Atom: 592  0 0 0
Framework[0] Atom: 593  0 0 0
Framework[0] Atom: 594  0 0 0
Framework[0] Atom: 595  0 0 0
Framework[0] Atom: 596  0 0 0
Framework[0] Atom: 597  0 0 0
Framework[0] Atom: 598  0 0 0
Framework[0] Atom: 599  0 0 0
Framework[0] Atom: 600  0 0 0
Framework[0] Atom: 601  0 0 0
Framework[0] Atom: 602  0 0 0
Framework[0] Atom: 603  0 0 0
Framework[0] Atom: 604  0 0 0
Framework[0] Atom: 605  0 0 0
Framework[0] Atom: 606  0 0 0
Framework[0] Atom: 607  0 0 0
Framework[0] Atom: 608  0 0 0
Framework[0] Atom: 609  0 0 0
Framework[0] Atom: 610  0 0 0
Framework[0] Atom: 611  0 0 0
Framework[0] Atom: 612  0 0 0
Framework[0] Atom: 613  0 0 0
Framework[0] Atom: 614  0 0 0
Framework[0] Atom: 615  0 0 0
Framework[0] Atom: 616  0 0 0
Framework[0] Atom: 617  0 0 0
Framework[0] Atom: 618  0 0 0
Framework[0] Atom: 619  0 0 0
Framework[0] Atom: 620  0 0 0
Framework[0] Atom: 621  0 0 0
Framework[0] Atom: 622  0 0 0
Framework[0] Atom: 623  0 0 0
Framework[0] Atom: 624  0 0 0
Framework[0] Atom: 625  0 0 0
Framework[0] Atom: 626  0 0 0
Framework[0] Atom: 627  0 0 0
Framework[0] Atom: 628  0 0 0
Framework[0] Atom: 629  0 0 0
Framework[0] Atom: 630  0 0 0
Framework[0] Atom: 631  0 0 0
Framework[0] Atom: 632  0 0 0
Framework[0] Atom: 633  0 0 0
Framework[0] Atom: 634  0 0 0
Framework[0] Atom: 635  0 0 0
Framework[0] Atom: 636  0 0 0
Framework[0] Atom: 637  0 0 0
Framework[0] Atom: 638  0 0 0
Framework[0] Atom: 639  0 0 0
Framework[0] Atom: 640  0 0 0
Framework[0] Atom: 641  0 0 0
Framework[0] Atom: 642  0 0 0
Framework[0] Atom: 643  0 0 0
Framework[0] Atom: 644  0 0 0
Framework[0] Atom: 645  0 0 0
Framework[0] Atom: 646  0 0 0
Framework[0] Atom: 647  0 0 0
Framework[0] Atom: 648  0 0 0
Framework[0] Atom: 649  0 0 0
Framework[0] Atom: 650  0 0 0
Framework[0] Atom: 651  0 0 0
Framework[0] Atom: 652  0 0 0
Framework[0] Atom: 653  0 0 0
Framework[0] Atom: 654  0 0 0
Framework[0] Atom: 655  0 0 0
Framework[0] Atom: 656  0 0 0
Framework[0] Atom: 657  0 0 0
Framework[0] Atom: 658  0 0 0
Framework[0] Atom: 659  0 0 0
Framework[0] Atom: 660  0 0 0
Framework[0] Atom: 661  0 0 0
Framework[0] Atom: 662  0 0 0
Framework[0] Atom: 663  0 0 0
Framework[0] Atom: 664  0 0 0
Framework[0] Atom: 665  0 0 0
Framework[0] Atom: 666  0 0 0
Framework[0] Atom: 667  0 0 0
Framework[0] Atom: 668  0 0 0
Framework[0] Atom: 669  0 0 0
Framework[0] Atom: 670  0 0 0
Framework[0] Atom: 671  0 0 0
Framework[0] Atom: 672  0 0 0
Framework[0] Atom: 673  0 0 0
Framework[0] Atom: 674  0 0 0
Framework[0] Atom: 675  0 0 0
Framework[0] Atom: 676  0 0 0
Framework[0] Atom: 677  0 0 0
Framework[0] Atom: 678  0 0 0
Framework[0] Atom: 679  0 0 0
Framework[0] Atom: 680  0 0 0
Framework[0] Atom: 681  0 0 0
Framework[0] Atom: 682  0 0 0
Framework[0] Atom: 683  0 0 0
Framework[0] Atom: 684  0 0 0
Framework[0] Atom: 685  0 0 0
Framework[0] Atom: 686  0 0 0
Framework[0] Atom: 687  0 0 0
Framework[0] Atom: 688  0 0 0
Framework[0] Atom: 689  0 0 0
Framework[0] Atom: 690  0 0 0
Framework[0] Atom: 691  0 0 0
Framework[0] Atom: 692  0 0 0
Framework[0] Atom: 693  0 0 0
Framework[0] Atom: 694  0 0 0
Framework[0] Atom: 695  0 0 0
Framework[0] Atom: 696  0 0 0
Framework[0] Atom: 697  0 0 0
Framework[0] Atom: 698  0 0 0
Framework[0] Atom: 699  0 0 0
Framework[0] Atom: 700  0 0 0
Framework[0] Atom: 701  0 0 0
Framework[0] Atom: 702  0 0 0
Framework[0] Atom: 703  0 0 0
Framework[0] Atom: 704  0 0 0
Framework[0] Atom: 705  0 0 0
Framework[0] Atom: 706  0 0 0
Framework[0] Atom: 707  0 0 0
Framework[0] Atom: 708  0 0 0
Framework[0] Atom: 709  0 0 0
Framework[0] Atom: 710  0 0 0
Framework[0] Atom: 711  0 0 0
Framework[0] Atom: 712  0 0 0
Framework[0] Atom: 713  0 0 0
Framework[0] Atom: 714  0 0 0
Framework[0] Atom: 715  0 0 0
Framework[0] Atom: 716  0 0 0
Framework[0] Atom: 717  0 0 0
Framework[0] Atom: 718  0 0 0
Framework[0] Atom: 719  0 0 0
Framework[0] Atom: 720  0 0 0
Framework[0] Atom: 721  0 0 0
Framework[0] Atom: 722  0 0 0
Framework[0] Atom: 723  0 0 0
Framework[0] Atom: 724  0 0 0
Framework[0] Atom: 725  0 0 0
Framework[0] Atom: 726  0 0 0
Framework[0] Atom: 727  0 0 0
Framework[0] Atom: 728  0 0 0
Framework[0] Atom: 729  0 0 0
Framework[0] Atom: 730  0 0 0
Framework[0] Atom: 731  0 0 0
Framework[0] Atom: 732  0 0 0
Framework[0] Atom: 733  0 0 0
Framework[0] Atom: 734  0 0 0
Framework[0] Atom: 735  0 0 0
Framework[0] Atom: 736  0 0 0
Framework[0] Atom: 737  0 0 0
Framework[0] Atom: 738  0 0 0
Framework[0] Atom: 739  0 0 0
Framework[0] Atom: 740  0 0 0
Framework[0] Atom: 741  0 0 0
Framework[0] Atom: 742  0 0 0
Framework[0] Atom: 743  0 0 0
Framework[0] Atom: 744  0 0 0
Framework[0] Atom: 745  0 0 0
Framework[0] Atom: 746  0 0 0
Framework[0] Atom: 747  0 0 0
Framework[0] Atom: 748  0 0 0
Framework[0] Atom: 749  0 0 0
Framework[0] Atom: 750  0 0 0
Framework[0] Atom: 751  0 0 0
Framework[0] Atom: 752  0 0 0
Framework[0] Atom: 753  0 0 0
Framework[0] Atom: 754  0 0 0
Framework[0] Atom: 755  0 0 0
Framework[0] Atom: 756  0 0 0
Framework[0] Atom: 757  0 0 0
Framework[0] Atom: 758  0 0 0
Framework[0] Atom: 759  0 0 0
Framework[0] Atom: 760  0 0 0
Framework[0] Atom: 761  0 0 0
Framework[0] Atom: 762  0 0 0
Framework[0] Atom: 763  0 0 0
Framework[0] Atom: 764  0 0 0
Framework[0] Atom: 765  0 0 0
Framework[0] Atom: 766  0 0 0
Framework[0] Atom: 767  0 0 0
Framework[0] Atom: 768  0 0 0
Framework[0] Atom: 769  0 0 0
Framework[0] Atom: 770  0 0 0
Framework[0] Atom: 771  0 0 0
Framework[0] Atom: 772  0 0 0
Framework[0] Atom: 773  0 0 0
Framework[0] Atom: 774  0 0 0
Framework[0] Atom: 775  0 0 0
Framework[0] Atom: 776  0 0 0
Framework[0] Atom: 777  0 0 0
Framework[0] Atom: 778  0 0 0
Framework[0] Atom: 779  0 0 0
Framework[0] Atom: 780  0 0 0
Framework[0] Atom: 781  0 0 0
Framework[0] Atom: 782  0 0 0
Framework[0] Atom: 783  0 0 0
Framework[0] Atom: 784  0 0 0
Framework[0] Atom: 785  0 0 0
Framework[0] Atom: 786  0 0 0
Framework[0] Atom: 787  0 0 0
Framework[0] Atom: 788  0 0 0
Framework[0] Atom: 789  0 0 0
Framework[0] Atom: 790  0 0 0
Framework[0] Atom: 791  0 0 0
Framework[0] Atom: 792  0 0 0
Framework[0] Atom: 793  0 0 0
Framework[0] Atom: 794  0 0 0
Framework[0] Atom: 795  0 0 0
Framework[0] Atom: 796  0 0 0
Framework[0] Atom: 797  0 0 0
Framework[0] Atom: 798  0 0 0
Framework[0] Atom: 799  0 0 0
Framework[0] Atom: 800  0 0 0
Framework[0] Atom: 801  0 0 0
Framework[0] Atom: 802  0 0 0
Framework[0] Atom: 803  0 0 0
Framework[0] Atom: 804  0 0 0
Framework[0] Atom: 805  0 0 0
Framework[0] Atom: 806  0 0 0
Framework[0] Atom: 807  0 0 0
Framework[0] Atom: 808  0 0 0
Framework[0] Atom: 809  0 0 0
Framework[0] Atom: 810  0 0 0
Framework[0] Atom: 811  0 0 0
Framework[0] Atom: 812  0 0 0
Framework[0] Atom: 813  0 0 0
Framework[0] Atom: 814  0 0 0
Framework[0] Atom: 815  0 0 0
Framework[0] Atom: 816  0 0 0
Framework[0] Atom: 817  0 0 0
Framework[0] Atom: 818  0 0 0
Framework[0] Atom: 819  0 0 0
Framework[0] Atom: 820  0 0 0
Framework[0] Atom: 821  0 0 0
Framework[0] Atom: 822  0 0 0
Framework[0] Atom: 823  0 0 0
Framework[0] Atom: 824  0 0 0
Framework[0] Atom: 825  0 0 0
Framework[0] Atom: 826  0 0 0
Framework[0] Atom: 827  0 0 0
Framework[0] Atom: 828  0 0 0
Framework[0] Atom: 829  0 0 0
Framework[0] Atom: 830  0 0 0
Framework[0] Atom: 831  0 0 0
Framework[0] Atom: 832  0 0 0
Framework[0] Atom: 833  0 0 0
Framework[0] Atom: 834  0 0 0
Framework[0] Atom: 835  0 0 0
Framework[0] Atom: 836  0 0 0
Framework[0] Atom: 837  0 0 0
Framework[0] Atom: 838  0 0 0
Framework[0] Atom: 839  0 0 0
Framework[0] Atom: 840  0 0 0
Framework[0] Atom: 841  0 0 0
Framework[0] Atom: 842  0 0 0
Framework[0] Atom: 843  0 0 0
Framework[0] Atom: 844  0 0 0
Framework[0] Atom: 845  0 0 0
Framework[0] Atom: 846  0 0 0
Framework[0] Atom: 847  0 0 0
Framework[0] Atom: 848  0 0 0
Framework[0] Atom: 849  0 0 0
Framework[0] Atom: 850  0 0 0
Framework[0] Atom: 851  0 0 0
Framework[0] Atom: 852  0 0 0
Framework[0] Atom: 853  0 0 0
Framework[0] Atom: 854  0 0 0
Framework[0] Atom: 855  0 0 0
Framework[0] Atom: 856  0 0 0
Framework[0] Atom: 857  0 0 0
Framework[0] Atom: 858  0 0 0
Framework[0] Atom: 859  0 0 0
Framework[0] Atom: 860  0 0 0
Framework[0] Atom: 861  0 0 0
Framework[0] Atom: 862  0 0 0
Framework[0] Atom: 863  0 0 0
Adsorbate[0] Group: 0  Com force: 1.13687e-12 1.19371e-12 2.72848e-11
Adsorbate[0] Group: 0  torque: -1.73301e-11 -1.22498e-11 0




Current (minimization full energy) Energy Status
===========================================================================

Internal energy:
Host stretch energy:                                            0.00000000
Host UreyBradley energy:                                        0.00000000
Host bend energy:                                               0.00000000
Host inversion-bend energy:                                     0.00000000
Host torsion energy:                                            0.00000000
Host improper torsion energy:                                   0.00000000
Host out-of-plane energy:                                       0.00000000
Host stretch/stretch energy:                                    0.00000000
Host bend/bend energy:                                          0.00000000
Host stretch/bend energy:                                       0.00000000
Host stretch/torsion energy:                                    0.00000000
Host bend/torsion energy:                                       0.00000000

Adsorbate stretch energy:                                       0.00000000
Adsorbate UreyBradley energy:                                   0.00000000
Adsorbate bend energy:                                          0.00000000
Adsorbate inversion-bend energy:                                0.00000000
Adsorbate torsion energy:                                       0.00000000
Adsorbate improper torsion energy:                              0.00000000
Adsorbate out-of-plane energy:                                  0.00000000
Adsorbate stretch/stretch energy:                               0.00000000
Adsorbate bend/bend energy:                                     0.00000000
Adsorbate stretch/bend energy:                                  0.00000000
Adsorbate stretch/torsion energy:                               0.00000000
Adsorbate bend/torsion energy:                                  0.00000000
Adsorbate intra VDW energy:                                     0.00000000
Adsorbate intra charge-charge Coulomb energy:                   0.00000000
Adsorbate intra charge-bonddipole Coulomb energy:               0.00000000
Adsorbate intra bonddipole-bonddipole Coulomb energy:           0.00000000

Cation stretch energy:                                          0.00000000
Cation UreyBradley energy:                                      0.00000000
Cation bend energy:                                             0.00000000
Cation inversion-bend energy:                                   0.00000000
Cation torsion energy:                                          0.00000000
Cation improper torsion energy:                                 0.00000000
Cation out-of-plane energy:                                     0.00000000
Cation stretch/stretch energy:                                  0.00000000
Cation bend/bend energy:                                        0.00000000
Cation stretch/bend energy:                                     0.00000000
Cation stretch/torsion energy:                                  0.00000000
Cation bend/torsion energy:                                     0.00000000
Cation intra VDW energy:                                        0.00000000
Cation intra charge-charge Coulomb energy:                      0.00000000
Cation intra charge-bonddipole Coulomb energy:                  0.00000000
Cation intra bonddipole-bonddipole Coulomb energy:              0.00000000

Host/Host energy:                                             0.00000000
	Host/Host VDW energy:                                         0.00000000
	Host/Host Coulomb energy:                                     0.00000000
	Host/Host charge-charge Real energy:                          0.00000000
	Host/Host charge-charge Fourier energy:                       0.00000000
	Host/Host charge-bonddipole Real energy:                      0.00000000
	Host/Host charge-bonddipole Fourier energy:                   0.00000000
	Host/Host bondipole-bonddipole Real energy:                   0.00000000
	Host/Host bondipole-bonddipole Fourier energy:                0.00000000

Host/Adsorbate energy:                                    -4345.68013850
	Host/Adsorbate VDW energy:                                -2470.29920383
	Host/Adsorbate Coulomb energy:                            -1875.38093468
	Host/Adsorbate charge-charge Real energy:                 -1857.10222533
	Host/Adsorbate charge-charge Fourier energy:                -18.27870934
	Host/Adsorbate charge-bonddipole Real energy:                 0.00000000
	Host/Adsorbate charge-bonddipole Fourier energy:              0.00000000
	Host/Adsorbate bondipole-bonddipole Real energy:              0.00000000
	Host/Adsorbate bondipole-bonddipole Fourier energy:           0.00000000

Host/Cation energy:                                           0.00000000
	Host/Cation VDW energy:                                       0.00000000
	Host/Cation Coulomb energy:                                   0.00000000
	Host/Cation charge-charge Real energy:                        0.00000000
	Host/Cation charge-charge Fourier energy:                     0.00000000
	Host/Cation charge-bonddipole Real energy:                    0.00000000
	Host/Cation charge-bonddipole Fourier energy:                 0.00000000
	Host/Cation bondipole-bonddipole Real energy:                 0.00000000
	Host/Cation bondipole-bonddipole Fourier energy:              0.00000000

Adsorbate/Adsorbate energy:                                        0.00042605
	Adsorbate/Adsorbate VDW energy:                                    0.00000000
	Adsorbate/Adsorbate Coulomb energy:                                0.00042605
	Adsorbate/Adsorbate charge-charge Real energy:                     0.00000000
	Adsorbate/Adsorbate charge-charge Fourier energy:                  0.00042605
	Adsorbate/Adsorbate charge-bonddipole Real energy:                 0.00000000
	Adsorbate/Adsorbate charge-bonddipole Fourier energy:              0.00000000
	Adsorbate/Adsorbate bondipole-bonddipole Real energy:              0.00000000
	Adsorbate/Adsorbate bondipole-bonddipole Fourier energy:           0.00000000

Adsorbate/Cation energy:                                           0.00000000
	Adsorbate/Cation VDW energy:                                       0.00000000
	Adsorbate/Cation Coulomb energy:                                   0.00000000
	Adsorbate/Cation charge-charge Real energy:                        0.00000000
	Adsorbate/Cation charge-charge Fourier energy:                     0.00000000
	Adsorbate/Cation charge-bonddipole Real energy:                    0.00000000
	Adsorbate/Cation charge-bonddipole Fourier energy:                 0.00000000
	Adsorbate/Cation bondipole-bonddipole Real energy:                 0.00000000
	Adsorbate/Cation bondipole-bonddipole Fourier energy:              0.00000000

Cation/Cation energy:                                           0.00000000
	Cation/Cation VDW energy:                                       0.00000000
	Cation/Cation Coulomb energy:                                   0.00000000
	Cation/Cation charge-charge Real energy:                        0.00000000
[...]
	Block[ 1]            0.00000 [K]
	Block[ 2]            0.00000 [K]
	Block[ 3]            0.00000 [K]
	Block[ 4]            0.00000 [K]
	------------------------------------------------------------------------------
	Average              0.00000 [K] +/-            0.00000 [K]

Average Cation Bend angle inversion energy:
===========================================
	Block[ 0]            0.00000 [K]
	Block[ 1]            0.00000 [K]
	Block[ 2]            0.00000 [K]
	Block[ 3]            0.00000 [K]
	Block[ 4]            0.00000 [K]
	------------------------------------------------------------------------------
	Average              0.00000 [K] +/-            0.00000 [K]

Average Cation Torsion energy:
==============================
	Block[ 0]            0.00000 [K]
	Block[ 1]            0.00000 [K]
	Block[ 2]            0.00000 [K]
	Block[ 3]            0.00000 [K]
	Block[ 4]            0.00000 [K]
	------------------------------------------------------------------------------
	Average              0.00000 [K] +/-            0.00000 [K]

Average Cation Improper Torsion energy:
=======================================
	Block[ 0]            0.00000 [K]
	Block[ 1]            0.00000 [K]
	Block[ 2]            0.00000 [K]
	Block[ 3]            0.00000 [K]
	Block[ 4]            0.00000 [K]
	------------------------------------------------------------------------------
	Average              0.00000 [K] +/-            0.00000 [K]

Average Cation Bond-Bond cross term energy:
=================================================
	Block[ 0]            0.00000 [K]
	Block[ 1]            0.00000 [K]
	Block[ 2]            0.00000 [K]
	Block[ 3]            0.00000 [K]
	Block[ 4]            0.00000 [K]
	------------------------------------------------------------------------------
	Average              0.00000 [K] +/-            0.00000 [K]

Average Cation Bend-Bend cross term energy:
===========================================
	Block[ 0]            0.00000 [K]
	Block[ 1]            0.00000 [K]
	Block[ 2]            0.00000 [K]
	Block[ 3]            0.00000 [K]
	Block[ 4]            0.00000 [K]
	------------------------------------------------------------------------------
	Average              0.00000 [K] +/-            0.00000 [K]

Average Cation Bond-Bend cross term energy:
==============================================
	Block[ 0]            0.00000 [K]
	Block[ 1]            0.00000 [K]
	Block[ 2]            0.00000 [K]
	Block[ 3]            0.00000 [K]
	Block[ 4]            0.00000 [K]
	------------------------------------------------------------------------------
	Average              0.00000 [K] +/-            0.00000 [K]

Average Cation Bond-Torsion cross term energy:
==============================================
	Block[ 0]            0.00000 [K]
	Block[ 1]            0.00000 [K]
	Block[ 2]            0.00000 [K]
	Block[ 3]            0.00000 [K]
	Block[ 4]            0.00000 [K]
	------------------------------------------------------------------------------
	Average              0.00000 [K] +/-            0.00000 [K]

Average Cation Bend-Torsion cross term energy:
==============================================
	Block[ 0]            0.00000 [K]
	Block[ 1]            0.00000 [K]
	Block[ 2]            0.00000 [K]
	Block[ 3]            0.00000 [K]
	Block[ 4]            0.00000 [K]
	------------------------------------------------------------------------------
	Average              0.00000 [K] +/-            0.00000 [K]

Average Cation Intra Van der Waals energy:
==========================================
	Block[ 0]            0.00000 [K]
	Block[ 1]            0.00000 [K]
	Block[ 2]            0.00000 [K]
	Block[ 3]            0.00000 [K]
	Block[ 4]            0.00000 [K]
	------------------------------------------------------------------------------
	Average              0.00000 [K] +/-            0.00000 [K]

Average Cation Intra charge-charge Coulomb energy:
====================================
	Block[ 0]            0.00000 [K]
	Block[ 1]            0.00000 [K]
	Block[ 2]            0.00000 [K]
	Block[ 3]            0.00000 [K]
	Block[ 4]            0.00000 [K]
	------------------------------------------------------------------------------
	Average              0.00000 [K] +/-            0.00000 [K]

Average Cation Intra charge-bonddipole Coulomb energy:
====================================
	Block[ 0]            0.00000 [K]
	Block[ 1]            0.00000 [K]
	Block[ 2]            0.00000 [K]
	Block[ 3]            0.00000 [K]
	Block[ 4]            0.00000 [K]
	------------------------------------------------------------------------------
	Average              0.00000 [K] +/-            0.00000 [K]

Average Cation Intra bonddipole-bonddipole Coulomb energy:
====================================
	Block[ 0]            0.00000 [K]
	Block[ 1]            0.00000 [K]
	Block[ 2]            0.00000 [K]
	Block[ 3]            0.00000 [K]
	Block[ 4]            0.00000 [K]
	------------------------------------------------------------------------------
	Average              0.00000 [K] +/-            0.00000 [K]

Average Host-Host energy:
=========================
	Block[ 0] 0.00000            Van der Waals: 0.00000            Coulomb: 0.00000            [K]
	Block[ 1] 0.00000            Van der Waals: 0.00000            Coulomb: 0.00000            [K]
	Block[ 2] 0.00000            Van der Waals: 0.00000            Coulomb: 0.00000            [K]
	Block[ 3] 0.00000            Van der Waals: 0.00000            Coulomb: 0.00000            [K]
	Block[ 4] 0.00000            Van der Waals: 0.00000            Coulomb: 0.00000            [K]
	------------------------------------------------------------------------------
	Average   0.00000            Van der Waals: 0.000000           Coulomb: 0.00000            [K]
	      +/- 0.00000                       +/- 0.000000                +/- 0.00000            [K]

Average Adsorbate-Adsorbate energy:
===================================
	Block[ 0] 0.00000            Van der Waals: 0.00000            Coulomb: 0.00000            [K]
	Block[ 1] 0.00000            Van der Waals: 0.00000            Coulomb: 0.00000            [K]
	Block[ 2] 0.00000            Van der Waals: 0.00000            Coulomb: 0.00000            [K]
	Block[ 3] 0.00000            Van der Waals: 0.00000            Coulomb: 0.00000            [K]
	Block[ 4] 0.00000            Van der Waals: 0.00000            Coulomb: 0.00000            [K]
	------------------------------------------------------------------------------
	Average   0.00000            Van der Waals: 0.000000           Coulomb: 0.00000            [K]
	      +/- 0.00000                       +/- 0.000000                +/- 0.00000            [K]

Average Cation-Cation energy:
=============================
	Block[ 0] 0.00000            Van der Waals: 0.00000            Coulomb: 0.00000            [K]
	Block[ 1] 0.00000            Van der Waals: 0.00000            Coulomb: 0.00000            [K]
	Block[ 2] 0.00000            Van der Waals: 0.00000            Coulomb: 0.00000            [K]
	Block[ 3] 0.00000            Van der Waals: 0.00000            Coulomb: 0.00000            [K]
	Block[ 4] 0.00000            Van der Waals: 0.00000            Coulomb: 0.00000            [K]
	------------------------------------------------------------------------------
	Average   0.00000            Van der Waals: 0.000000           Coulomb: 0.00000            [K]
	      +/- 0.00000                       +/- 0.000000                +/- 0.00000            [K]

Average Host-Adsorbate energy:
==============================
	Block[ 0] 0.00000            Van der Waals: 0.00000            Coulomb: 0.00000            [K]
	Block[ 1] 0.00000            Van der Waals: 0.00000            Coulomb: 0.00000            [K]
	Block[ 2] 0.00000            Van der Waals: 0.00000            Coulomb: 0.00000            [K]
	Block[ 3] 0.00000            Van der Waals: 0.00000            Coulomb: 0.00000            [K]
	Block[ 4] 0.00000            Van der Waals: 0.00000            Coulomb: 0.00000            [K]
	------------------------------------------------------------------------------
	Average   0.00000            Van der Waals: 0.000000           Coulomb: 0.00000            [K]
	      +/- 0.00000                       +/- 0.000000                +/- 0.00000            [K]

Average Host-Cation energy:
===========================
	Block[ 0] 0.00000            Van der Waals: 0.00000            Coulomb: 0.00000            [K]
	Block[ 1] 0.00000            Van der Waals: 0.00000            Coulomb: 0.00000            [K]
	Block[ 2] 0.00000            Van der Waals: 0.00000            Coulomb: 0.00000            [K]
	Block[ 3] 0.00000            Van der Waals: 0.00000            Coulomb: 0.00000            [K]
	Block[ 4] 0.00000            Van der Waals: 0.00000            Coulomb: 0.00000            [K]
	------------------------------------------------------------------------------
	Average   0.00000            Van der Waals: 0.000000           Coulomb: 0.00000            [K]
	      +/- 0.00000                       +/- 0.000000                +/- 0.00000            [K]

Average Adsorbate-Cation energy:
================================
	Block[ 0] 0.00000            Van der Waals: 0.00000            Coulomb: 0.00000            [K]
	Block[ 1] 0.00000            Van der Waals: 0.00000            Coulomb: 0.00000            [K]
	Block[ 2] 0.00000            Van der Waals: 0.00000            Coulomb: 0.00000            [K]
	Block[ 3] 0.00000            Van der Waals: 0.00000            Coulomb: 0.00000            [K]
	Block[ 4] 0.00000            Van der Waals: 0.00000            Coulomb: 0.00000            [K]
	------------------------------------------------------------------------------
	Average   0.00000            Van der Waals: 0.000000           Coulomb: 0.00000            [K]
	      +/- 0.00000                       +/- 0.000000                +/- 0.00000            [K]

Host polarization energy:
=======================
	Block[ 0]            0.00000 [K]
	Block[ 1]            0.00000 [K]
	Block[ 2]            0.00000 [K]
	Block[ 3]            0.00000 [K]
	Block[ 4]            0.00000 [K]
	------------------------------------------------------------------------------
	Average              0.00000 [K] +/-            0.00000 [K]

Adsorbate polarization energy:
=======================
	Block[ 0]            0.00000 [K]
	Block[ 1]            0.00000 [K]
	Block[ 2]            0.00000 [K]
	Block[ 3]            0.00000 [K]
	Block[ 4]            0.00000 [K]
	------------------------------------------------------------------------------
	Average              0.00000 [K] +/-            0.00000 [K]

Cation polarization energy:
=======================
	Block[ 0]            0.00000 [K]
	Block[ 1]            0.00000 [K]
	Block[ 2]            0.00000 [K]
	Block[ 3]            0.00000 [K]
	Block[ 4]            0.00000 [K]
	------------------------------------------------------------------------------
	Average              0.00000 [K] +/-            0.00000 [K]

Host back-polarization energy:
=======================
	Block[ 0]            0.00000 [K]
	Block[ 1]            0.00000 [K]
	Block[ 2]            0.00000 [K]
	Block[ 3]            0.00000 [K]
	Block[ 4]            0.00000 [K]
	------------------------------------------------------------------------------
	Average              0.00000 [K] +/-            0.00000 [K]

Adsorbate back-polarization energy:
=======================
	Block[ 0]            0.00000 [K]
	Block[ 1]            0.00000 [K]
	Block[ 2]            0.00000 [K]
	Block[ 3]            0.00000 [K]
	Block[ 4]            0.00000 [K]
	------------------------------------------------------------------------------
	Average              0.00000 [K] +/-            0.00000 [K]

Cation back-polarization energy:
=======================
	Block[ 0]            0.00000 [K]
	Block[ 1]            0.00000 [K]
	Block[ 2]            0.00000 [K]
	Block[ 3]            0.00000 [K]
	Block[ 4]            0.00000 [K]
	------------------------------------------------------------------------------
	Average              0.00000 [K] +/-            0.00000 [K]

Tail-correction energy:
=======================
	Block[ 0]            0.00000 [K]
	Block[ 1]            0.00000 [K]
	Block[ 2]            0.00000 [K]
	Block[ 3]            0.00000 [K]
	Block[ 4]            0.00000 [K]
	------------------------------------------------------------------------------
	Average              0.00000 [K] +/-            0.00000 [K]

Distance-constraints energy:
=======================
	Block[ 0]            0.00000 [K]
	Block[ 1]            0.00000 [K]
	Block[ 2]            0.00000 [K]
	Block[ 3]            0.00000 [K]
	Block[ 4]            0.00000 [K]
	------------------------------------------------------------------------------
	Average              0.00000 [K] +/-            0.00000 [K]

Angle-constraints energy:
=======================
	Block[ 0]            0.00000 [K]
	Block[ 1]            0.00000 [K]
	Block[ 2]            0.00000 [K]
	Block[ 3]            0.00000 [K]
	Block[ 4]            0.00000 [K]
	------------------------------------------------------------------------------
	Average              0.00000 [K] +/-            0.00000 [K]

Dihedral-constraints energy:
=======================
	Block[ 0]            0.00000 [K]
	Block[ 1]            0.00000 [K]
	Block[ 2]            0.00000 [K]
	Block[ 3]            0.00000 [K]
	Block[ 4]            0.00000 [K]
	------------------------------------------------------------------------------
	Average              0.00000 [K] +/-            0.00000 [K]

Inversion-bend constraints energy:
=======================
	Block[ 0]            0.00000 [K]
	Block[ 1]            0.00000 [K]
	Block[ 2]            0.00000 [K]
	Block[ 3]            0.00000 [K]
	Block[ 4]            0.00000 [K]
	------------------------------------------------------------------------------
	Average              0.00000 [K] +/-            0.00000 [K]

Out-of-plane-distance constraints energy:
=======================
	Block[ 0]            0.00000 [K]
	Block[ 1]            0.00000 [K]
	Block[ 2]            0.00000 [K]
	Block[ 3]            0.00000 [K]
	Block[ 4]            0.00000 [K]
	------------------------------------------------------------------------------
	Average              0.00000 [K] +/-            0.00000 [K]

Exclusion-constraints energy:
=======================
	Block[ 0]            0.00000 [K]
	Block[ 1]            0.00000 [K]
	Block[ 2]            0.00000 [K]
	Block[ 3]            0.00000 [K]
	Block[ 4]            0.00000 [K]
	------------------------------------------------------------------------------
	Average              0.00000 [K] +/-            0.00000 [K]

Total energy:
=============
	Block[ 0]            0.00000 [K]
	Block[ 1]            0.00000 [K]
	Block[ 2]            0.00000 [K]
	Block[ 3]            0.00000 [K]
	Block[ 4]            0.00000 [K]
	------------------------------------------------------------------------------
	Average              0.00000 [K] +/-            0.00000 [K]

Number of molecules:
====================

Component 0 [CO2]
-------------------------------------------------------------
	Block[ 0] 0.00000            [-]
	Block[ 1] 0.00000            [-]
	Block[ 2] 0.00000            [-]
	Block[ 3] 0.00000            [-]
	Block[ 4] 0.00000            [-]
	------------------------------------------------------------------------------
	Average                                      0.0000000000 +/-       0.0000000000 [-]
	Average loading absolute [molecules/unit cell]        0.0000000000 +/-       0.0000000000 [-]
	Average loading absolute [mol/kg framework]          0.0000000000 +/-       0.0000000000 [-]
	Average loading absolute [milligram/gram framework]          0.0000000000 +/-       0.0000000000 [-]
	Average loading absolute [cm^3 (STP)/gr framework]          0.0000000000 +/-       0.0000000000 [-]
	Average loading absolute [cm^3 (STP)/cm^3 framework]          0.0000000000 +/-       0.0000000000 [-]

	Block[ 0] 0.00000            [-]
	Block[ 1] 0.00000            [-]
	Block[ 2] 0.00000            [-]
	Block[ 3] 0.00000            [-]
	Block[ 4] 0.00000            [-]
	------------------------------------------------------------------------------
	Average                                      0.0000000000 +/-       0.0000000000 [-]
	Average loading excess [molecules/unit cell]        0.0000000000 +/-       0.0000000000 [-]
	Average loading excess [mol/kg framework]          0.0000000000 +/-       0.0000000000 [-]
	Average loading excess [milligram/gram framework]          0.0000000000 +/-       0.0000000000 [-]
	Average loading excess [cm^3 (STP)/gr framework]          0.0000000000 +/-       0.0000000000 [-]
	Average loading excess [cm^3 (STP)/cm^3 framework]          0.0000000000 +/-       0.0000000000 [-]


Average Widom Rosenbluth factor:
================================
	Block[ 0] 0 [-]
	Block[ 1] 0 [-]
	Block[ 2] 0 [-]
	Block[ 3] 0 [-]
	Block[ 4] 0 [-]
	------------------------------------------------------------------------------
	[CO2] Average Widom Rosenbluth-weight:   0 +/- 0.000000 [-]

Average Widom chemical potential:
=================================
	Block[ 0] 0 [-]
	Block[ 1] 0 [-]
	Block[ 2] 0 [-]
	Block[ 3] 0 [-]
	Block[ 4] 0 [-]
	------------------------------------------------------------------------------
	[CO2] Average chemical potential:   0 +/- 0.000000 [K]

Average Widom Ideal-gas contribution:
=====================================
	Block[ 0] 0 [-]
	Block[ 1] 0 [-]
	Block[ 2] 0 [-]
	Block[ 3] 0 [-]
	Block[ 4] 0 [-]
	------------------------------------------------------------------------------
	[CO2] Average Widom Ideal-gas chemical potential:   0 +/- 0.000000 [-]

Average Widom excess contribution:
==================================
	Block[ 0] 0 [-]
	Block[ 1] 0 [-]
	Block[ 2] 0 [-]
	Block[ 3] 0 [-]
	Block[ 4] 0 [-]
	------------------------------------------------------------------------------
	[CO2] Average Widom excess chemical potential:   0 +/- 0.000000 [-]

Average Gibbs Widom Rosenbluth factor:
======================================
	Block[ 0] 0 [-]
	Block[ 1] 0 [-]
	Block[ 2] 0 [-]
	Block[ 3] 0 [-]
	Block[ 4] 0 [-]
	------------------------------------------------------------------------------
	[CO2] Average Gibbs Widom Rosenbluth-weight:   0 +/- 0.000000 [-]

Average Gibbs Widom chemical potential:
=======================================
	Block[ 0] 0 [-]
	Block[ 1] 0 [-]
	Block[ 2] 0 [-]
	Block[ 3] 0 [-]
	Block[ 4] 0 [-]
	------------------------------------------------------------------------------
	[CO2] Average Gibbs chemical potential:   0 +/- 0.000000 [K]

Average Gibbs Widom Ideal-gas contribution:
===========================================
	Block[ 0] 0 [-]
	Block[ 1] 0 [-]
	Block[ 2] 0 [-]
	Block[ 3] 0 [-]
	Block[ 4] 0 [-]
	------------------------------------------------------------------------------
	[CO2] Average Gibbs Ideal-gas chemical potential:   0 +/- 0.000000 [-]

Average Gibbs Widom excess contribution:
===========================================
	Block[ 0] 0 [-]
	Block[ 1] 0 [-]
	Block[ 2] 0 [-]
	Block[ 3] 0 [-]
	Block[ 4] 0 [-]
	------------------------------------------------------------------------------
	[CO2] Average Gibbs excess chemical potential:   0 +/- 0.000000 [-]

Average Henry coefficient:
==========================
	Block[ 0] 0 [mol/kg/Pa]
	Block[ 1] 0 [mol/kg/Pa]
	Block[ 2] 0 [mol/kg/Pa]
	Block[ 3] 0 [mol/kg/Pa]
	Block[ 4] 0 [mol/kg/Pa]
	------------------------------------------------------------------------------
	[CO2] Average Henry coefficient:  0 +/- 0 [mol/kg/Pa]

Average adsorption energy <U_gh>_1-<U_h>_0 obtained from Widom-insertion:
(Note: the total heat of adsorption is dH=<U_gh>_1-<U_h>_0 - <U_g> - RT)
=========================================================================

Simulation finished,  0 warnings


Wed Nov 18 15:54:52 2020
Simulation finished on Wednesday, November 18.
The end time was 03:54 PM.

