Compiler and run-time data
===========================================================================
RASPA 2.0.37
Compiled as a 64-bits application
Compiler: gcc 9.3.0
Compile Date = Mar 18 2020, Compile Time = 13:46:53

Mon Nov 16 20:13:45 2020
Simulation started on Monday, November 16.
The start time was 08:13 PM.

Cpu data:    x86_64
Cpu Model:   MacBookPro11,4
Host name:   B126028.local
OS release:  19.6.0
OS type:     Darwin
OS version:  19H15


Simulation
===========================================================================
Dimensions: 3
Random number seed: 1605554025
RASPA directory set to: /Users/leopold/Personal/Programmierung/qm-codes/RASPA2/src/.libs
String appended to output-files: 
Number of cycles: 100
Number of initializing cycles: 10
Number of equilibration cycles: 0
Print every: 10
Triclinic boundary condition applied
Timestep: 0.000500
	Degrees of freedom:                        0
	Translational Degrees of freedom:          0
	Rotational Degrees of freedom:             0
	Degrees of freedom Framework:              0


Mutual consistent basic set of units:
======================================
Unit of temperature: Kelvin
Unit of length:      1e-10 [m]
Unit of time:        1e-12 [s]
Unit of mass:        1.66054e-27 [kg]
Unit of charge:      1.60218e-19 [C/particle]

Derived units and their conversion factors:
===========================================
Unit of energy:              1.66054e-23 [J]
Unit of force:               1.66054e-13 [N]
Unit of pressure:            1.66054e+07 [Pa]
Unit of velocity:            100 [m/s]
Unit of acceleration:        1e-08 [m^2/s]
Unit of diffusion:           1e-08 [m^2/s]
Unit of dipole moment:       1.60218e-29 [C.m]
Unit of electric potential:  0.000103643 [V]
Unit of electric field:      1.03643e+06 [V]
Unit of polarizability:      1.54587e-35 [-]
Unit of Coulomb potential:   167101.0800066561  [K]
Unit of dielectric constant: 0.0000154587       [s^2 C^2/(kg m^3)]
Unit of wave vectors:        5.3088374589       [cm^1]
Boltzmann constant:          0.8314464919       [-]

Internal conversion factors:
===========================================
Energy to Kelvin:                                    1.2027242847
FH correction factor                                 2.0211930949
Heat capacity conversion factor:                    10.0000088723
From Debye to internal units:                        4.8032067991
Isothermal compressibility conversion factor:        0.0000000602

Energy conversion factors:
===========================================
From mdyne/A to kcal/mol/A^2:           143.933
From mdyne/A to kj/mol/A^2:             602.214
From mdyne/A to K/A^2:                  72429.7
From mdyne A/rad^2 to kcal/mol/deg^2:   0.0438444


Properties computed
===========================================================================
Movies: no
Radial Distribution Function: no
Number of molecules GCMC histogram: no
Histogram of the molecule positions: no
Free energy profiles: no
Pore Size Distribution Function: no
End-to-end distance: no
Histogram of the energy of the system: no
Compute thermodynamic factors: no
Framework spacing histograms: no
Residence times histograms: no
Distance histograms: no
Bend Angle histograms: no
Dihedral angle histograms: no
Angle between planes histograms: no
Molecule properties: no
Infra-red spectra: no
Mean-squared displacement using modified order-N algorithm: no
Velocity-autocorrelation function modified order-N algorithm: no
Rotational velocity-autocorrelation function modified order-N algorithm: no
Molecular orientation-autocorrelation function modified order-N algorithm: no
Bond orientation-autocorrelation function modified order-N algorithm: no
Mean-squared displacement (conventional algorithm): no
Velocity-autocorrelation function (conventional algorithm): no
3D density grid for adsorbates: no
Compute cation an/or adsorption sites: no
dcTST snapshots: no
Compute pressure and stress: no


VTK
===========================================================================
VTK fractional-range position framework atoms: [-0.001000,1.001000] [-0.001000,1.001000] [-0.001000,1.001000]
VTK fractional-range position framework bonds: [-0.151000,1.151000] [-0.151000,1.151000] [-0.151000,1.151000]
VTK fractional-range com-position adsorbate molecules: [-0.101000,1.101000] [-0.101000,1.101000] [-0.101000,1.101000]
VTK fractional-range com-position cation molecules: [-0.101000,1.101000] [-0.101000,1.101000] [-0.101000,1.101000]
	3D free energy grid made for the full simulation-cell


Thermo/Baro-stat NHC parameters
===========================================================================
External temperature: 400 [K]
Beta: 0.00300681 [energy unit]
External Pressure: 300000 [Pa]


Thermostat chain-length: 3
Timescale parameter for thermostat: 0.150000 [ps]
Barostat chain-length:   3
Timescale parameter for barostat:   0.150000 [ps]

Number of Yoshida-Suzuki decomposition steps: 5
Number of respa steps: 5


Method and settings for electrostatics
===============================================================================
Dielectric constant of the medium : 1.000000
Charge from charge-equilibration: no
Ewald summation is used (exact solution of a periodic system)
Relative precision                : 1e-06
Alpha convergence parameter       : 0.265058
kvec (x,y,z)                      : 7 8 8


CFC-RXMC parameters
===========================================================================
Number of reactions: 0


Rattle parameters
===========================================================================
Distance constraint type: r^2-r^2_0
Bend angle constraint type: theta-theta_0
Dihedral angle constraint type: phi-phi_0
Inversion-bend angle constraint type: chi-chi_0
Out-of-plane distance constraint type: r-r_0


Spectra parameters
===========================================================================
Compute normal modes: no


Minimization parameters
===========================================================================
Generalized coordinates are: Cartesian center-of-mass, elements of the orientational matrix p1,p2,p3 and strain
Potential derivatives are evaluated: analytically
Translation of the system is removed from the generalized Hessian: no
Rotation of the system is removed from the generalized Hessian: no
Maximum step-length: 0.3
Convergence factor: 1
Maximum number of minimization steps: 10000
Use gradients in the line-minimizations: yes
RMS gradient tolerance: 1e-06
Maximum gradient tolerance: 1e-06

Distance constraints: 0
Angle constraints: 0
Dihedral constraints: 0

Improper dihedral constraints: 0

Inversion-bend constraints: 0

Out-of-plane constraints: 0

Harmonic distance constraints: 0
Harmonic angle constraints: 0
Harmonic dihedral constraints: 0

Dihedral mid-point measurements: 0

All framework atoms are fixed

Fixed adsorbate atoms:  
Fixed adsorbate groups (center-of-mass):  
Fixed adsorbate groups (orientation):  

Fixed cation atoms:  
Fixed cation groups (center-of-mass):  
Fixed cation groups (orientation):  


dcTST parameters
===========================================================================
Free energy profiles computed: no
Free energy profiles written every 5000 cycles
Free energy mapping: mapped to a,b,c-coordinates
BarrierPosition:       0.0000000000       0.0000000000       0.0000000000
BarrierNormal:         0.0000000000       0.0000000000       0.0000000000
Start with a molecule on top of the barrier: no
Maximum distance to barrier (e.g. distance to minumum free energy):       0.0000000000 [A]
Maximum trajectory time:      10.0000000000 [ps]
Each configuration is used with 5 different initial velocities


Cbmc parameters
===========================================================================
Biasing method: using only the VDW part
Number of trial positions:                                       10
Number of trial positions (reinsertion):                         10
Number of trial positions (partial reinsertion):                 10
Number of trial positions (identity-change):                     10
Number of trial positions (Gibbs particle transfer):             10
Number of trial positions (insertion/deletion):                  10
Number of trial positions (Widom insertion):                     10
Number of trial positions coupled Torsion-selection:             100
Number of trial positions first bead:                            10
Number of trial positions first bead (reinsertion):              10
Number of trial positions first bead (partial reinsertion):      10
Number of trial positions first bead (identity-change):          10
Number of trial positions first bead (Gibbs particle transfer):  10
Number of trial positions first bead (insertion/deletion):       10
Number of trial positions first bead (Widom insertion):          10
Number of trial moves per open bead:                             150
Target acceptance ratio small-mc scheme:                         0.400000
Energy overlap criteria:                                         1e+07
Minimal Rosenbluth factor:                                       1e-150


Pseudo atoms: 7
===========================================================================
Pseudo Atom[   0] Name UNIT     Oxidation:          Element: H    pdb-name: H    Scat. Types:   1   1 Mass=1.000000000  B-factor:0.000   
                 Charge=1.000000000          Polarization=0.000000000  [A^3] (considered a charged atom and no polarization)  Interactions: yes
                 Anisotropic factor:    0.000 [-] (Absolute), Radius:    1.000 [A], Framework-atom:  no
Pseudo Atom[   1] Name O_co2    Oxidation: +0       Element: O    pdb-name: O    Scat. Types:   9   8 Mass=15.999400000 B-factor:1.000   
                 Charge=-0.350000000         Polarization=0.000000000  [A^3] (considered a charged atom and no polarization)  Interactions: yes
                 Anisotropic factor:    0.000 [-] (Relative), Radius:    0.680 [A], Framework-atom:  no
Pseudo Atom[   2] Name C_co2    Oxidation: +0       Element: C    pdb-name: C    Scat. Types:   7   6 Mass=12.000000000 B-factor:1.000   
                 Charge=0.700000000          Polarization=0.000000000  [A^3] (considered a charged atom and no polarization)  Interactions: yes
                 Anisotropic factor:    0.000 [-] (Relative), Radius:    0.720 [A], Framework-atom:  no
Pseudo Atom[   3] Name Mg       Oxidation:          Element: Mg   pdb-name: Mg   Scat. Types:  13  12 Mass=24.305051612 B-factor:0.000   
                 Charge=0.300000000    (av)  Polarization=10.600000000 [A^3] (considered a charged atom and no polarization)  Interactions: yes
                 Anisotropic factor:    0.000 [-] (Absolute), Radius:    1.400 [A], Framework-atom: yes (charge from structure file)
Pseudo Atom[   4] Name H        Oxidation:          Element: H    pdb-name: H    Scat. Types:   1   1 Mass=1.007940754  B-factor:0.000   
                 Charge=0.000000000    (av)  Polarization=0.666793000  [A^3] (considered a charged atom and no polarization)  Interactions: yes
                 Anisotropic factor:    0.000 [-] (Absolute), Radius:    0.320 [A], Framework-atom: yes (charge from structure file)
Pseudo Atom[   5] Name C        Oxidation:          Element: C    pdb-name: C    Scat. Types:   7   6 Mass=12.010735897 B-factor:0.000   
                 Charge=0.000000000    (av)  Polarization=1.760000000  [A^3] (considered a charged atom and no polarization)  Interactions: yes
                 Anisotropic factor:    0.000 [-] (Absolute), Radius:    0.750 [A], Framework-atom: yes (charge from structure file)
Pseudo Atom[   6] Name O        Oxidation:          Element: O    pdb-name: O    Scat. Types:   9   8 Mass=15.999404927 B-factor:0.000   
                 Charge=-0.100000000   (av)  Polarization=0.802000000  [A^3] (considered a charged atom and no polarization)  Interactions: yes
                 Anisotropic factor:    0.000 [-] (Absolute), Radius:    0.640 [A], Framework-atom: yes (charge from structure file)


Forcefield: Local
===========================================================================
Minimal distance: 1
CutOff VDW : 12.000000 (144.000000)
CutOff VDW switching on: 10.800000 (116.640000)
CutOff charge-charge : 12.000000 (144.000000)
CutOff charge-charge switching on: 7.800000 (60.840000)
CutOff charge-bonddipole : 12.000000 (144.000000)
CutOff charge-bondipole switching on: 8.400000 (70.560000)
CutOff bonddipole-bonddipole : 12.000000 (144.000000)
CutOff bonddipole-bondipole switching on: 9.000000 (81.000000)
Polarization is neglected
TailCorrections are used
All potentials are unshifted !!!!!!

General mixing rule: Lorentz-Berthelot mixing rules are used FIRST for cross terms
0 cross terms are overwritten using the individual mixing rules from the file 'force_field_mixing_rules.def'
and then 0 terms are overwritten using the specific interactions from the file 'force_field.def'

The force field and all the interactions:
  O_co2 -   O_co2 [LENNARD_JONES] p_0/k_B:  79.00000 [K], p_1: 3.05000 [A], shift/k_B:   0.00000000 [K], tailcorrection: yes
  O_co2 -   C_co2 [LENNARD_JONES] p_0/k_B:  46.18441 [K], p_1: 2.92500 [A], shift/k_B:   0.00000000 [K], tailcorrection: yes
  O_co2 -      Mg [LENNARD_JONES] p_0/k_B:  66.43181 [K], p_1: 2.87070 [A], shift/k_B:   0.00000000 [K], tailcorrection: yes
  O_co2 -       H [LENNARD_JONES] p_0/k_B:  41.82545 [K], p_1: 2.81055 [A], shift/k_B:   0.00000000 [K], tailcorrection: yes
  O_co2 -       C [LENNARD_JONES] p_0/k_B:  64.61143 [K], p_1: 3.24045 [A], shift/k_B:   0.00000000 [K], tailcorrection: yes
  O_co2 -       O [LENNARD_JONES] p_0/k_B:  48.84166 [K], p_1: 3.08405 [A], shift/k_B:   0.00000000 [K], tailcorrection: yes
  C_co2 -   C_co2 [LENNARD_JONES] p_0/k_B:  27.00000 [K], p_1: 2.80000 [A], shift/k_B:   0.00000000 [K], tailcorrection: yes
  C_co2 -      Mg [LENNARD_JONES] p_0/k_B:  38.83689 [K], p_1: 2.74570 [A], shift/k_B:   0.00000000 [K], tailcorrection: yes
  C_co2 -       H [LENNARD_JONES] p_0/k_B:  24.45169 [K], p_1: 2.68555 [A], shift/k_B:   0.00000000 [K], tailcorrection: yes
  C_co2 -       C [LENNARD_JONES] p_0/k_B:  37.77267 [K], p_1: 3.11545 [A], shift/k_B:   0.00000000 [K], tailcorrection: yes
  C_co2 -       O [LENNARD_JONES] p_0/k_B:  28.55346 [K], p_1: 2.95905 [A], shift/k_B:   0.00000000 [K], tailcorrection: yes
     Mg -      Mg [LENNARD_JONES] p_0/k_B:  55.86310 [K], p_1: 2.69140 [A], shift/k_B:   0.00000000 [K], tailcorrection: yes
     Mg -       H [LENNARD_JONES] p_0/k_B:  35.17139 [K], p_1: 2.63125 [A], shift/k_B:   0.00000000 [K], tailcorrection: yes
     Mg -       C [LENNARD_JONES] p_0/k_B:  54.33233 [K], p_1: 3.06115 [A], shift/k_B:   0.00000000 [K], tailcorrection: yes
     Mg -       O [LENNARD_JONES] p_0/k_B:  41.07139 [K], p_1: 2.90475 [A], shift/k_B:   0.00000000 [K], tailcorrection: yes
      H -       H [LENNARD_JONES] p_0/k_B:  22.14390 [K], p_1: 2.57110 [A], shift/k_B:   0.00000000 [K], tailcorrection: yes
      H -       C [LENNARD_JONES] p_0/k_B:  34.20762 [K], p_1: 3.00100 [A], shift/k_B:   0.00000000 [K], tailcorrection: yes
      H -       O [LENNARD_JONES] p_0/k_B:  25.85854 [K], p_1: 2.84460 [A], shift/k_B:   0.00000000 [K], tailcorrection: yes
      C -       C [LENNARD_JONES] p_0/k_B:  52.84350 [K], p_1: 3.43090 [A], shift/k_B:   0.00000000 [K], tailcorrection: yes
      C -       O [LENNARD_JONES] p_0/k_B:  39.94594 [K], p_1: 3.27450 [A], shift/k_B:   0.00000000 [K], tailcorrection: yes
      O -       O [LENNARD_JONES] p_0/k_B:  30.19630 [K], p_1: 3.11810 [A], shift/k_B:   0.00000000 [K], tailcorrection: yes


MoleculeDefinitions:
===========================================================================
Component 0 [CO2] (Adsorbate molecule)

	MoleculeDefinitions: Local
	Component contains (at least some) atoms which are charged
	Component contains no atoms with point dipoles (polarization)
	Component has a net charge of 0.000000

	Ideal chain Rosenbluth weight: 1
	Ideal chain total energy: 0.000000

	Critical temparure [K]: 304.190000
	Critical pressure [Pa]: 7382000.000000
	Acentric factor [-]: 0.228000

	RXMC partition factor ln(q/V) [ln(A^(-3))]:       0.0000000000

	Vapour=stable, Liquid=metastable

	MolFraction:           1.0000000000 [-]
	Compressibility:       0.9937955035 [-]

	Density of the bulk fluid phase:       3.9936570039 [kg/m^3]

	Binary mixture EOS parameters:  (0): 0.000000

	Amount of excess molecules:       0.6730860173 [-]

	Conversion factor molecules/unit cell -> mol/kg:       1.3733907382 [-]
	Conversion factor molecules/unit cell -> mg/g:      60.4275444139 [-]
	Conversion factor molecules/unit cell -> cm^3 STP/gr:      30.7831466990 [-]
	Conversion factor molecules/unit cell -> cm^3 STP/cm^3:      28.1462944758 [-]
	Conversion factor mol/kg -> cm^3 STP/gr:      22.4139757476 [-]
	Conversion factor mol/kg -> cm^3 STP/cm^3:      20.4940179746 [-]

	Partial pressure:    300000.00000000000000 [Pa]
	                       2250.00000000000000 [Torr]
	                          3.00000000000000 [bar]
	                          2.96076980014804 [atm]

	Fugacity coefficient:       0.9938103185 [-]

	Partial fugacity:    298143.09554044081597 [Pa]
	                       2236.07321655330588 [Torr]
	                          2.98143095540441 [bar]
	                          2.94244357799596 [atm]

	Molecule contains 3 number of atoms
		atom:    0  is of type:    1 [     O_co2] (group: 0)
		atom:    1  is of type:    2 [     C_co2] (group: 0)
		atom:    2  is of type:    1 [     O_co2] (group: 0)

	Molecule contains 0 chirality centers

	Molecule contains 1 number of groups

		group: 0 containing: 3 elements
		-------------------------------------------------
		the group is rigid and linear
		Mass: 43.998800 [a.u.]
		Mass: 3.453213 [kg/m^3]

		Rotational Degrees of freedom: 2
		Diagonalized inertia vector:      43.0575852800
		                                  43.0575852800
		                                   0.0000000000
		number of atoms: 3
			element: 0 atom: 0 [     O_co2] Charge: -0.350000 Anisotropy: 0.000000 Position:  0.000000 -0.000000  1.160000 Connectivity: 2 (1 2 )
			element: 1 atom: 1 [     C_co2] Charge:  0.700000 Anisotropy: 0.000000 Position:  0.000000 -0.000000  0.000000 Connectivity: 1 (0 )
			element: 2 atom: 2 [     O_co2] Charge: -0.350000 Anisotropy: 0.000000 Position:  0.000000 -0.000000 -1.160000 Connectivity: 1 (0 )
		number of permanent dipoles: 0
		number of polarizabilities: 0

		Dipole:           0.0000000000 [D]
		Quadrupole:       2.2621182741       2.2621182741      -4.5242365482 [D Angstrom]
		Quadrupole tensor [D Angstrom]
				       2.2621182741       0.0000000000       0.0000000000
				       0.0000000000       2.2621182741       0.0000000000
				       0.0000000000       0.0000000000      -4.5242365482

	Starting bead for growth               : 0

	Degrees of freedom                     : 0
	Translational degrees of freedom       : 0
	Rotational degrees of freedom          : 0
	Vibrational degrees of freedom         : 0
	Constraint degrees of freedom          : 0

	Number of atoms                        : 3

	Number of constraint bonds             : 0
	Number of constraint bends             : 0
	Number of constraint inversion bends   : 0
	Number of constraint torsions          : 0
	Number of constraint improper torsions : 0
	Number of constraint improper torsions : 0

	Number of bonds                        : 2
	Number of Urey-Bradleys                : 0
	Number of bends                        : 0
	Number of inversion bends              : 0
	Number of torsions                     : 0
	Number of improper torsions            : 0
	Number of improper torsions            : 0

	Number of bond/bond cross terms        : 0
	Number of bond/bend cross terms        : 0
	Number of bend/bend cross terms        : 0
	Number of stretch/torsion cross terms  : 0
	Number of bend/torsion cross terms     : 0

	Number of charges                      : 3
	Number of bond-dipoles                 : 0

	Number of intra Van der Waals                             : 0
	Number of intra charge-charge Coulomb                     : 0
	Number of intra charge-bonddipole Coulomb                 : 0
	Number of intra bonddipole-bonddipole Coulomb             : 0

	Number of excluded intra charge-charge Coulomb                     : 3
	Number of excluded intra charge-bonddipole Coulomb                 : 0
	Number of excluded intra bonddipole-bonddipole Coulomb             : 0

	Number of cbmc-config moves                               : 0

	Particle Moves:             
		ProbabilityTranslationMove:                  20.000000
			TranslationDirection:      XYZ
		Percentage of random translation moves:            0.000000
		Percentage of rotation moves:                      20.000000
		Percentage of random rotation moves:               0.000000
		Percentage of partial reinsertion moves:           0.000000
		Percentage of reinsertion moves:                   20.000000
		Percentage of reinsertion-in-place moves:          0.000000
		Percentage of reinsertion-in-plane moves:          0.000000
		Percentage of identity-change moves:               0.000000
		Percentage of swap (insert/delete) moves:          40.000000
		Percentage of CF swap lambda moves:                0.000000
		Percentage of CB/CFMC swap lambda moves:           0.000000
		Percentage of Widom insertion moves:               0.000000
		Percentage of CF-Widom insertion moves:            0.000000
		Percentage of Gibbs Widom insertion moves:         0.000000
		Percentage of surface-area moves:                  0.000000
		Percentage of Gibbs particle-transfer moves:       0.000000
		Percentage of Gibbs identity-change moves:         0.000000
		Percentage of CF Gibbs lambda-transfer moves:      0.000000
		Percentage of CB/CFMC Gibbs lambda-transfer moves: 0.000000
		Percentage of exchange frac./int. particle moves:  0.000000
		Percentage of fractional mol. to other box moves:  0.000000
		Percentage of lambda-change moves:                 0.000000
		Percentage of fractional to integer moves:         0.000000

	System Moves:
		Percentage of parallel-tempering moves:            0.000000
		Percentage of hyper-parallel-tempering moves:      0.000000
		Percentage of parallel-mol-fraction moves:         0.000000
			   Component A: 0 B: 1
		Percentage of chiral inversion moves:              0.000000
		Percentage of Hybrid-NVE moves:                    0.000000
		Percentage of Hybrid-NPH moves:                    0.000000
		Percentage of Hybrid-NPHPR moves:                  0.000000
		Percentage of volume-change moves:                 0.000000
		Percentage of box-shape-change moves:              0.000000
		Percentage of Gibbs volume-change moves:           0.000000
		Percentage of framework-change moves:              0.000000
		Percentage of framework-shift moves:               0.000000
		Percentage of reactive MC moves:                   0.000000

	Moves are restricted: No
	No biased sampling used for this component

	Number of Bonds: 2
	--------------------------------------------
	Bond interaction 0: A=0 B=1 Type:RIGID_BOND
		r_0=1.1600000000       [A]
	Bond interaction 1: A=0 B=2 Type:RIGID_BOND
		r_0=2.3200000000       [A]


	number of identity-config changes: 1
	--------------------------------------------
	nr fixed 1: 0 

	Number of pockets blocked in a unitcell: 0
		Pockets are NOT blocked for this component



Framework Status
===========================================================================
Lowenstein's rule obeyed by framework
	Framework is modelled as: rigid

	Number of charges:                               384
	Number of bonddipoles:                           0


System Properties
===========================================================================
Unit cell size: 6.719200 15.240200 15.240200
Cell angles (radians)  alpha: 1.084219 beta: 1.423299 gamma: 1.718294
Cell angles (degrees)  alpha: 62.121200 beta: 81.549000 gamma: 98.451000
Number of unitcells [a]: 4
Number of unitcells [b]: 2
Number of unitcells [c]: 2

TRICLINIC Boundary conditions: alpha!=90 or beta!=90 or gamma!=90

Cartesian axis A is collinear with crystallographic axis a
Cartesian axis B is collinear with (axb)xA
Cartesian axis C is collinear with (axb)

lengths of cell vectors:
 26.87680  30.48040  30.48040
cosines of cell angles:
  0.46760   0.14696  -0.14696
perpendicular cell widths:
 25.76340  26.11018  26.11018
volume of the cell: 21157.612647397575 (A^3)

Orthogonalization matrix Box
Transforms fractional coordinates abc into orthonormal Cartesian coordinates xyz
Deorthogonalization matrix InverseBox
Transforms orthonormal Cartesian coordinates xyz into fractional coordinates xyz

Box[0]:
	   26.876800000000    -4.479507472560     4.479507472560
	    0.000000000000    30.149441072154    15.074726799251
	    0.000000000000     0.000000000000    26.110178262341

Inverse box[0]:
	    0.037206810335     0.005528068813    -0.009574898704
	    0.000000000000     0.033168110732    -0.019149628268
	    0.000000000000    -0.000000000000     0.038299240624


Unitcell box[0]:
	    6.719200000000    -2.239753736280     2.239753736280
	    0.000000000000    15.074720536077     7.537363399625
	    0.000000000000     0.000000000000    13.055089131171

Unitcell inverse box[0]:
	    0.148827241338     0.022112275252    -0.038299594817
	    0.000000000000     0.066336221465    -0.038299256536
	    0.000000000000    -0.000000000000     0.076598481248

lengths of cell vectors (inverse box):
  0.03721   0.03363   0.04388
cosines of cell angles (inverse box):
 -0.46637  -0.21822   0.16440
perpendicular cell widths (inverse):
  0.03621   0.02967   0.03830
volume of the cell: 21157.612647397575 (A^3)

No replicas are used
Framework is simulated as 'rigid'
Number of framework atoms: 864
Number of framework atoms in the unit cell: 54
Framework Mass: 11649.998470527247 [g/mol]
Framework Density:   914.341043525381 [kg/m^3]    1.0936838142411 [cm^3/g]
Helium void fraction:    0.58200000
Available pore volume: 12313.73056079 [A^3]    0.63652398 [cm^3/g]
Conversion factor from molecule/unit cell -> kmol/m^3: 0.0784842, kmol/m^3 accesible pore volume: 0.134853

Number Of Frameworks (per system): 1
----------------------------------------------------------------------
Framework name: framework_1
Space group: 1
	Identifier: 1
	short international Hermann-Mauguin symbol: P 1
	long international Hermann-Mauguin symbol: P 1
	Hall symbol: P 1
	Number of lattice translations: 1 [ (0,0,0) ]
	acentric/centric: acentric
	chiral: no
	enantiomorphic: no
	number of operators: 1
		'x,y,z'
Framework is simulated as 'rigid'
Shift: 0.000000 0.000000 0.000000
Number of framework atoms: 864
Number of asymmetric atoms: 54
Number of free framework atoms: 0
Number of fixed framework atoms: 864
Number of framework atoms in the unit cell: 54
Framework Mass: 11649.998470527247 [g/mol]
Framework Density:   914.341043525386 [kg/m^3]
Framework has net charge: -0.000000
         largest charge : 0.300000
         smallest charge: -0.100000

Using FULL Host-guest interaction calculation (for testing purposes)

Current Atom Status
===========================================================================
Number of framework atoms        : 864
Number of cations molecules      : 0
Number of adsorbate molecules    : 0
Component    0 :    0 molecules
Pseudo Atoms    0 [    UNIT]:    0 atoms
Pseudo Atoms    1 [   O_co2]:    0 atoms
Pseudo Atoms    2 [   C_co2]:    0 atoms
Pseudo Atoms    3 [      Mg]:   96 atoms
Pseudo Atoms    4 [       H]:   96 atoms
Pseudo Atoms    5 [       C]:  384 atoms
Pseudo Atoms    6 [       O]:  288 atoms


Current (initial full energy) Energy Status
===========================================================================

Internal energy:
Host stretch energy:                                            0.00000000
Host UreyBradley energy:                                        0.00000000
Host bend energy:                                               0.00000000
Host inversion-bend energy:                                     0.00000000
Host torsion energy:                                            0.00000000
Host improper torsion energy:                                   0.00000000
Host out-of-plane energy:                                       0.00000000
Host stretch/stretch energy:                                    0.00000000
Host bend/bend energy:                                          0.00000000
Host stretch/bend energy:                                       0.00000000
Host stretch/torsion energy:                                    0.00000000
Host bend/torsion energy:                                       0.00000000

Adsorbate stretch energy:                                       0.00000000
Adsorbate UreyBradley energy:                                   0.00000000
Adsorbate bend energy:                                          0.00000000
Adsorbate inversion-bend energy:                                0.00000000
Adsorbate torsion energy:                                       0.00000000
Adsorbate improper torsion energy:                              0.00000000
Adsorbate out-of-plane energy:                                  0.00000000
Adsorbate stretch/stretch energy:                               0.00000000
Adsorbate bend/bend energy:                                     0.00000000
Adsorbate stretch/bend energy:                                  0.00000000
Adsorbate stretch/torsion energy:                               0.00000000
Adsorbate bend/torsion energy:                                  0.00000000
Adsorbate intra VDW energy:                                     0.00000000
Adsorbate intra charge-charge Coulomb energy:                   0.00000000
Adsorbate intra charge-bonddipole Coulomb energy:               0.00000000
Adsorbate intra bonddipole-bonddipole Coulomb energy:           0.00000000

Cation stretch energy:                                          0.00000000
Cation UreyBradley energy:                                      0.00000000
Cation bend energy:                                             0.00000000
Cation inversion-bend energy:                                   0.00000000
Cation torsion energy:                                          0.00000000
Cation improper torsion energy:                                 0.00000000
Cation out-of-plane energy:                                     0.00000000
Cation stretch/stretch energy:                                  0.00000000
Cation bend/bend energy:                                        0.00000000
Cation stretch/bend energy:                                     0.00000000
Cation stretch/torsion energy:                                  0.00000000
Cation bend/torsion energy:                                     0.00000000
Cation intra VDW energy:                                        0.00000000
Cation intra charge-charge Coulomb energy:                      0.00000000
Cation intra charge-bonddipole Coulomb energy:                  0.00000000
Cation intra bonddipole-bonddipole Coulomb energy:              0.00000000

Host/Host energy:                                             0.00000000
	Host/Host VDW energy:                                         0.00000000
	Host/Host Coulomb energy:                                     0.00000000
	Host/Host charge-charge Real energy:                          0.00000000
	Host/Host charge-charge Fourier energy:                       0.00000000
	Host/Host charge-bonddipole Real energy:                      0.00000000
	Host/Host charge-bonddipole Fourier energy:                   0.00000000
	Host/Host bondipole-bonddipole Real energy:                   0.00000000
	Host/Host bondipole-bonddipole Fourier energy:                0.00000000

Host/Adsorbate energy:                                        0.00000000
	Host/Adsorbate VDW energy:                                    0.00000000
	Host/Adsorbate Coulomb energy:                                0.00000000
	Host/Adsorbate charge-charge Real energy:                     0.00000000
	Host/Adsorbate charge-charge Fourier energy:                  0.00000000
	Host/Adsorbate charge-bonddipole Real energy:                 0.00000000
	Host/Adsorbate charge-bonddipole Fourier energy:              0.00000000
	Host/Adsorbate bondipole-bonddipole Real energy:              0.00000000
	Host/Adsorbate bondipole-bonddipole Fourier energy:           0.00000000

Host/Cation energy:                                           0.00000000
	Host/Cation VDW energy:                                       0.00000000
	Host/Cation Coulomb energy:                                   0.00000000
	Host/Cation charge-charge Real energy:                        0.00000000
	Host/Cation charge-charge Fourier energy:                     0.00000000
	Host/Cation charge-bonddipole Real energy:                    0.00000000
	Host/Cation charge-bonddipole Fourier energy:                 0.00000000
	Host/Cation bondipole-bonddipole Real energy:                 0.00000000
	Host/Cation bondipole-bonddipole Fourier energy:              0.00000000

Adsorbate/Adsorbate energy:                                        0.00000000
	Adsorbate/Adsorbate VDW energy:                                    0.00000000
	Adsorbate/Adsorbate Coulomb energy:                                0.00000000
	Adsorbate/Adsorbate charge-charge Real energy:                     0.00000000
	Adsorbate/Adsorbate charge-charge Fourier energy:                  0.00000000
	Adsorbate/Adsorbate charge-bonddipole Real energy:                 0.00000000
	Adsorbate/Adsorbate charge-bonddipole Fourier energy:              0.00000000
	Adsorbate/Adsorbate bondipole-bonddipole Real energy:              0.00000000
	Adsorbate/Adsorbate bondipole-bonddipole Fourier energy:           0.00000000

Adsorbate/Cation energy:                                           0.00000000
	Adsorbate/Cation VDW energy:                                       0.00000000
	Adsorbate/Cation Coulomb energy:                                   0.00000000
	Adsorbate/Cation charge-charge Real energy:                        0.00000000
	Adsorbate/Cation charge-charge Fourier energy:                     0.00000000
	Adsorbate/Cation charge-bonddipole Real energy:                    0.00000000
	Adsorbate/Cation charge-bonddipole Fourier energy:                 0.00000000
	Adsorbate/Cation bondipole-bonddipole Real energy:                 0.00000000
	Adsorbate/Cation bondipole-bonddipole Fourier energy:              0.00000000

Cation/Cation energy:                                           0.00000000
	Cation/Cation VDW energy:                                       0.00000000
	Cation/Cation Coulomb energy:                                   0.00000000
	Cation/Cation charge-charge Real energy:                        0.00000000
	Cation/Cation charge-charge Fourier energy:                     0.00000000
	Cation/Cation charge-bonddipole Real energy:                    0.00000000
	Cation/Cation charge-bonddipole Fourier energy:                 0.00000000
	Cation/Cation bondipole-bonddipole Real energy:                 0.00000000
	Cation/Cation bondipole-bonddipole Fourier energy:              0.00000000

Polarization energy:
	Host polarization energy:                                     0.00000000
	Adsorbate polarization energy:                                0.00000000
	Cation polarization energy:                                   0.00000000
	Host back-polarization energy:                                     0.00000000
	Adsorbate back-polarization energy:                                0.00000000
	Cation back-polarization energy:                                   0.00000000

Tail-correction energy:                                   -7705.55253230

Distance constraints energy:                                  0.00000000
Angle constraints energy:                                     0.00000000
Dihedral constraints energy:                                  0.00000000
Inversion-bend constraints energy:                            0.00000000
Out-of-plane distance constraints energy:                     0.00000000
Exclusion constraints energy:                                 0.00000000

===================================================================
Total energy: -7705.552532299876
	Total Van der Waals: 0.000000
	Total Coulomb: 0.000000

	Total Polarization: 0.000000







+++++++++++++++++++++++++++++++++++++++++++++++++++++++++++++++++++++++++
Starting simulation
+++++++++++++++++++++++++++++++++++++++++++++++++++++++++++++++++++++++++

[Init] Current cycle: 0 out of 10
========================================================================================================

Net charge: -3.747e-15 (F: -3.747e-15, A: 0, C: 0)
Current Box:  26.87680  -4.47951   4.47951 [A]
               0.00000  30.14944  15.07473 [A]
               0.00000   0.00000  26.11018 [A]
Box-lengths:  26.87680  30.48040  30.48040 Box-angles:   62.12120  81.54900  98.45100 [degrees]
Volume: 21157.61265 [A^3]

Loadings per component:
----------------------------------------------------------------------------------------------------------------------------------------------------
Component 0 (CO2), current number of integer/fractional/reaction molecules: 0/0/0, density:   0.00000 [kg/m^3]
	absolute adsorption:   0.00000 [mol/uc],         0.0000 [mol/kg],              0.0000 [mg/g]
	                                                 0.0000 [cm^3 STP/g],          0.0000 [cm^3 STP/cm^3]
	excess adsorption:    -0.04207 [mol/uc],        -0.0578 [mol/kg],             -2.5421 [mg/g]
	                                                -1.2950 [cm^3 STP/g],         -1.1841 [cm^3 STP/cm^3]
----------------------------------------------------------------------------------------------------------------------------------------------------
Degrees of freedom: 0 0 0 0
Number of Framework-atoms:    864
Number of Adsorbates:           0 (0 integer, 0 fractional, 0 reaction)
Number of Cations:              0 (0 integer, 0 fractional, 0 reaction

Current total potential energy:             -7705.5525322999 [K]
	Current Host-Host energy:                     0.0000000000 [K]
	Current Host-Adsorbate energy:                0.0000000000 [K]
	Current Host-Cation energy:                   0.0000000000 [K]
	Current Adsorbate-Adsorbate energy:           0.0000000000 [K]
	Current Cation-Cation energy:                 0.0000000000 [K]
	Current Adsorbate-Cation energy:              0.0000000000 [K]



Average Properties at Current cycle: 0 out of 100
========================================================================================

Framework surface area:       0.0000000000 [m^2/g]        0.0000000000 [m^2/cm^3]       0.0000000000 [A^2]
	Framework 0 individual surface area:       0.0000000000 [m^2/g]        0.0000000000 [m^2/cm^3]       0.0000000000 [A^2]
	Cation surface area:                       0.0000000000 [m^2/g]        0.0000000000 [m^2/cm^3]       0.0000000000 [A^2]
Compressibility:       0.0000000000 [-]
Henry coefficients
	Component 0: 0 [mol/kg/Pa] (Rosenbluth factor new: 0 [-])
Energy <U_gh>_1-<U_h>_0 from Widom


Current cycle: 0 out of 100
========================================================================================================

Net charge: -3.747e-15 (F: -3.747e-15, A: 0, C: 0)
Current Box:  26.87680  -4.47951   4.47951 [A]   Average Box:  26.87680  -4.47951   4.47951 [A]
               0.00000  30.14944  15.07473 [A]                  0.00000  30.14944  15.07473 [A]
               0.00000   0.00000  26.11018 [A]                  0.00000   0.00000  26.11018 [A]
Box-lengths:   26.87680  30.48040  30.48040 [A] Average:  26.87680  30.48040  30.48040 [A]
Box-angles:   62.12120  81.54900  98.45100 [degrees] Average:  62.12120  81.54900  98.45100 [degrees]
Volume: 21157.61265 [A^3] Average Volume: 21157.61265 [A^3]

Loadings per component:
----------------------------------------------------------------------------------------------------------------------------------------------------
Component 0 (CO2), current number of integer/fractional/reaction molecules: 13/0/0 (avg.  13.00000), density:  44.89179 (avg.  44.89179) [kg/m^3]
	absolute adsorption:   0.81250 (avg.   0.81250) [mol/uc],   1.1158799748 (avg.   1.1158799748) [mol/kg],  49.0973798363 (avg.  49.0973798363) [mg/g]
	                      25.0113066929 (avg.  25.0113066929) [cm^3 STP/g],   22.8688642616 (avg.  22.8688642616) [cm^3 STP/cm^3]
	excess adsorption:     0.7704321239 (avg.   0.7500000000) [mol/uc],   1.0581043434 (avg.   1.0300430537) [mol/kg],  46.5553213859 (avg.  45.3206583104) [mg/g]
	                      23.7163250922 (avg.  23.0873600243) [cm^3 STP/g],   21.6848094334 (avg.  21.1097208568) [cm^3 STP/cm^3]
----------------------------------------------------------------------------------------------------------------------------------------------------
Degrees of freedom: 65 0 65 0
Number of Framework-atoms:    864
Number of Adsorbates:          13 (13 integer, 0 fractional, 0 reaction)
Number of Cations:              0 (0 integer, 0 fractional, 0 reaction)

Current total potential energy:            -32460.9715848742 [K]  (avg.      -32460.9715848742)
	Current Host-Host energy:                     0.0000000000 [K]  (avg.           0.0000000000)
	Current Host-Adsorbate energy:           -23394.9511331356 [K]  (avg.      -23394.9511331356)
	Current Host-Cation energy:                   0.0000000000 [K]  (avg.           0.0000000000)
	Current Adsorbate-Adsorbate energy:        -666.4271049668 [K]  (avg.        -666.4271049668)
	Current Cation-Cation energy:                 0.0000000000 [K]  (avg.           0.0000000000)
	Current Adsorbate-Cation energy:              0.0000000000 [K]  (avg.           0.0000000000)



Current cycle: 10 out of 100
========================================================================================================

Net charge: -3.747e-15 (F: -3.747e-15, A: 0, C: 0)
Current Box:  26.87680  -4.47951   4.47951 [A]   Average Box:  26.87680  -4.47951   4.47951 [A]
               0.00000  30.14944  15.07473 [A]                  0.00000  30.14944  15.07473 [A]
               0.00000   0.00000  26.11018 [A]                  0.00000   0.00000  26.11018 [A]
Box-lengths:   26.87680  30.48040  30.48040 [A] Average:  26.87680  30.48040  30.48040 [A]
Box-angles:   62.12120  81.54900  98.45100 [degrees] Average:  62.12120  81.54900  98.45100 [degrees]
Volume: 21157.61265 [A^3] Average Volume: 21157.61265 [A^3]

Loadings per component:
----------------------------------------------------------------------------------------------------------------------------------------------------
Component 0 (CO2), current number of integer/fractional/reaction molecules: 16/0/0 (avg.  18.36364), density:  55.25143 (avg.  63.41358) [kg/m^3]
	absolute adsorption:   1.00000 (avg.   1.14773) [mol/uc],   1.3733907382 (avg.   1.5762780064) [mol/kg],  60.4275444139 (avg.  69.3543407478) [mg/g]
	                      30.7831466990 (avg.  35.3306570068) [cm^3 STP/g],   28.1462944758 (avg.  32.3042697961) [cm^3 STP/cm^3]
	excess adsorption:     0.9579321239 (avg.   1.0852272727) [mol/uc],   1.3156151069 (avg.   1.4904410853) [mol/kg],  57.8854859635 (avg.  65.5776192219) [mg/g]
	                      29.4881650982 (avg.  33.4067103381) [cm^3 STP/g],   26.9622396476 (avg.  30.5451263913) [cm^3 STP/cm^3]
----------------------------------------------------------------------------------------------------------------------------------------------------
Degrees of freedom: 80 0 80 0
Number of Framework-atoms:    864
Number of Adsorbates:          16 (16 integer, 0 fractional, 0 reaction)
Number of Cations:              0 (0 integer, 0 fractional, 0 reaction)

Current total potential energy:            -35398.7632150085 [K]  (avg.      -41140.0037280316)
	Current Host-Host energy:                     0.0000000000 [K]  (avg.           0.0000000000)
	Current Host-Adsorbate energy:           -25665.6149180104 [K]  (avg.      -30780.2342172250)
	Current Host-Cation energy:                   0.0000000000 [K]  (avg.           0.0000000000)
	Current Adsorbate-Adsorbate energy:       -1169.1784978263 [K]  (avg.       -1664.4237834558)
	Current Cation-Cation energy:                 0.0000000000 [K]  (avg.           0.0000000000)
	Current Adsorbate-Cation energy:              0.0000000000 [K]  (avg.           0.0000000000)



Current cycle: 20 out of 100
========================================================================================================

Net charge: -3.747e-15 (F: -3.747e-15, A: 0, C: 0)
Current Box:  26.87680  -4.47951   4.47951 [A]   Average Box:  26.87680  -4.47951   4.47951 [A]
               0.00000  30.14944  15.07473 [A]                  0.00000  30.14944  15.07473 [A]
               0.00000   0.00000  26.11018 [A]                  0.00000   0.00000  26.11018 [A]
Box-lengths:   26.87680  30.48040  30.48040 [A] Average:  26.87680  30.48040  30.48040 [A]
Box-angles:   62.12120  81.54900  98.45100 [degrees] Average:  62.12120  81.54900  98.45100 [degrees]
Volume: 21157.61265 [A^3] Average Volume: 21157.61265 [A^3]

Loadings per component:
----------------------------------------------------------------------------------------------------------------------------------------------------
Component 0 (CO2), current number of integer/fractional/reaction molecules: 16/0/0 (avg.  18.95238), density:  55.25143 (avg.  65.44664) [kg/m^3]
	absolute adsorption:   1.00000 (avg.   1.18452) [mol/uc],   1.3733907382 (avg.   1.6268140292) [mol/kg],  60.4275444139 (avg.  71.5778651094) [mg/g]
	                      30.7831466990 (avg.  36.4633701970) [cm^3 STP/g],   28.1462944758 (avg.  33.3399559564) [cm^3 STP/cm^3]
	excess adsorption:     0.9579321239 (avg.   1.1220238095) [mol/uc],   1.3156151069 (avg.   1.5409771081) [mol/kg],  57.8854859635 (avg.  67.8011435835) [mg/g]
	                      29.4881650982 (avg.  34.5394235284) [cm^3 STP/g],   26.9622396476 (avg.  31.5808125517) [cm^3 STP/cm^3]
----------------------------------------------------------------------------------------------------------------------------------------------------
Degrees of freedom: 80 0 80 0
Number of Framework-atoms:    864
Number of Adsorbates:          16 (16 integer, 0 fractional, 0 reaction)
Number of Cations:              0 (0 integer, 0 fractional, 0 reaction)

Current total potential energy:            -37601.3069478933 [K]  (avg.      -42391.5734705943)
	Current Host-Host energy:                     0.0000000000 [K]  (avg.           0.0000000000)
	Current Host-Adsorbate energy:           -26957.1888854924 [K]  (avg.      -32051.2012199049)
	Current Host-Cation energy:                   0.0000000000 [K]  (avg.           0.0000000000)
	Current Adsorbate-Adsorbate energy:       -2080.1482632291 [K]  (avg.       -1612.4783984004)
	Current Cation-Cation energy:                 0.0000000000 [K]  (avg.           0.0000000000)
	Current Adsorbate-Cation energy:              0.0000000000 [K]  (avg.           0.0000000000)



Current cycle: 30 out of 100
========================================================================================================

Net charge: -3.747e-15 (F: -3.747e-15, A: 0, C: 0)
Current Box:  26.87680  -4.47951   4.47951 [A]   Average Box:  26.87680  -4.47951   4.47951 [A]
               0.00000  30.14944  15.07473 [A]                  0.00000  30.14944  15.07473 [A]
               0.00000   0.00000  26.11018 [A]                  0.00000   0.00000  26.11018 [A]
Box-lengths:   26.87680  30.48040  30.48040 [A] Average:  26.87680  30.48040  30.48040 [A]
Box-angles:   62.12120  81.54900  98.45100 [degrees] Average:  62.12120  81.54900  98.45100 [degrees]
Volume: 21157.61265 [A^3] Average Volume: 21157.61265 [A^3]

Loadings per component:
----------------------------------------------------------------------------------------------------------------------------------------------------
Component 0 (CO2), current number of integer/fractional/reaction molecules: 17/0/0 (avg.  17.96774), density:  58.70465 (avg.  62.04647) [kg/m^3]
	absolute adsorption:   1.06250 (avg.   1.12298) [mol/uc],   1.4592276594 (avg.   1.5422956476) [mol/kg],  64.2042659398 (avg.  67.8591577390) [mg/g]
	                      32.7070933677 (avg.  34.5689772406) [cm^3 STP/g],   29.9054378805 (avg.  31.6078347238) [cm^3 STP/cm^3]
	excess adsorption:     1.0204321239 (avg.   1.0604838710) [mol/uc],   1.4014520280 (avg.   1.4564587264) [mol/kg],  61.6622074894 (avg.  64.0824362132) [mg/g]
	                      31.4121117669 (avg.  32.6450305719) [cm^3 STP/g],   28.7213830523 (avg.  29.8486913191) [cm^3 STP/cm^3]
----------------------------------------------------------------------------------------------------------------------------------------------------
Degrees of freedom: 85 0 85 0
Number of Framework-atoms:    864
Number of Adsorbates:          17 (17 integer, 0 fractional, 0 reaction)
Number of Cations:              0 (0 integer, 0 fractional, 0 reaction)

Current total potential energy:            -41144.8047845561 [K]  (avg.      -41802.6122953833)
	Current Host-Host energy:                     0.0000000000 [K]  (avg.           0.0000000000)
	Current Host-Adsorbate energy:           -32112.6757153310 [K]  (avg.      -31810.6502830767)
	Current Host-Cation energy:                   0.0000000000 [K]  (avg.           0.0000000000)
	Current Adsorbate-Adsorbate energy:        -413.0160202932 [K]  (avg.       -1318.6690724734)
	Current Cation-Cation energy:                 0.0000000000 [K]  (avg.           0.0000000000)
	Current Adsorbate-Cation energy:              0.0000000000 [K]  (avg.           0.0000000000)



Current cycle: 40 out of 100
========================================================================================================

Net charge: -3.747e-15 (F: -3.747e-15, A: 0, C: 0)
Current Box:  26.87680  -4.47951   4.47951 [A]   Average Box:  26.87680  -4.47951   4.47951 [A]
               0.00000  30.14944  15.07473 [A]                  0.00000  30.14944  15.07473 [A]
               0.00000   0.00000  26.11018 [A]                  0.00000   0.00000  26.11018 [A]
Box-lengths:   26.87680  30.48040  30.48040 [A] Average:  26.87680  30.48040  30.48040 [A]
Box-angles:   62.12120  81.54900  98.45100 [degrees] Average:  62.12120  81.54900  98.45100 [degrees]
Volume: 21157.61265 [A^3] Average Volume: 21157.61265 [A^3]

Loadings per component:
----------------------------------------------------------------------------------------------------------------------------------------------------
Component 0 (CO2), current number of integer/fractional/reaction molecules: 20/0/0 (avg.  18.56098), density:  69.06429 (avg.  64.09503) [kg/m^3]
	absolute adsorption:   1.25000 (avg.   1.16006) [mol/uc],   1.7167384228 (avg.   1.5932169997) [mol/kg],  75.5344305174 (avg.  70.0996361265) [mg/g]
	                      38.4789333738 (avg.  35.7103271920) [cm^3 STP/g],   35.1828680947 (avg.  32.6514178294) [cm^3 STP/cm^3]
	excess adsorption:     1.2079321239 (avg.   1.0975609756) [mol/uc],   1.6589627914 (avg.   1.5073800786) [mol/kg],  72.9923720670 (avg.  66.3229146007) [mg/g]
	                      37.1839517730 (avg.  33.7863805233) [cm^3 STP/g],   33.9988132665 (avg.  30.8922744246) [cm^3 STP/cm^3]
----------------------------------------------------------------------------------------------------------------------------------------------------
Degrees of freedom: 100 0 100 0
Number of Framework-atoms:    864
Number of Adsorbates:          20 (20 integer, 0 fractional, 0 reaction)
Number of Cations:              0 (0 integer, 0 fractional, 0 reaction)

Current total potential energy:            -47960.0776017803 [K]  (avg.      -42791.4034603836)
	Current Host-Host energy:                     0.0000000000 [K]  (avg.           0.0000000000)
	Current Host-Adsorbate energy:           -37239.0844298376 [K]  (avg.      -32721.6040385513)
	Current Host-Cation energy:                   0.0000000000 [K]  (avg.           0.0000000000)
	Current Adsorbate-Adsorbate energy:       -1935.3970768497 [K]  (avg.       -1363.6200335211)
	Current Cation-Cation energy:                 0.0000000000 [K]  (avg.           0.0000000000)
	Current Adsorbate-Cation energy:              0.0000000000 [K]  (avg.           0.0000000000)



Current cycle: 50 out of 100
========================================================================================================

Net charge: -3.747e-15 (F: -3.747e-15, A: 0, C: 0)
Current Box:  26.87680  -4.47951   4.47951 [A]   Average Box:  26.87680  -4.47951   4.47951 [A]
               0.00000  30.14944  15.07473 [A]                  0.00000  30.14944  15.07473 [A]
               0.00000   0.00000  26.11018 [A]                  0.00000   0.00000  26.11018 [A]
Box-lengths:   26.87680  30.48040  30.48040 [A] Average:  26.87680  30.48040  30.48040 [A]
Box-angles:   62.12120  81.54900  98.45100 [degrees] Average:  62.12120  81.54900  98.45100 [degrees]
Volume: 21157.61265 [A^3] Average Volume: 21157.61265 [A^3]

Loadings per component:
----------------------------------------------------------------------------------------------------------------------------------------------------
Component 0 (CO2), current number of integer/fractional/reaction molecules: 21/0/0 (avg.  18.39216), density:  72.51751 (avg.  63.51206) [kg/m^3]
	absolute adsorption:   1.31250 (avg.   1.14951) [mol/uc],   1.8025753439 (avg.   1.5787261182) [mol/kg],  79.3111520433 (avg.  69.4620547307) [mg/g]
	                      40.4028800425 (avg.  35.3855289261) [cm^3 STP/g],   36.9420114994 (avg.  32.3544414440) [cm^3 STP/cm^3]
	excess adsorption:     1.2704321239 (avg.   1.0870098039) [mol/uc],   1.7447997126 (avg.   1.4928891971) [mol/kg],  76.7690935929 (avg.  65.6853332048) [mg/g]
	                      39.1078984417 (avg.  33.4615822574) [cm^3 STP/g],   35.7579566712 (avg.  30.5952980392) [cm^3 STP/cm^3]
----------------------------------------------------------------------------------------------------------------------------------------------------
Degrees of freedom: 105 0 105 0
Number of Framework-atoms:    864
Number of Adsorbates:          21 (21 integer, 0 fractional, 0 reaction)
Number of Cations:              0 (0 integer, 0 fractional, 0 reaction)

Current total potential energy:            -48413.2779506467 [K]  (avg.      -42567.6029464060)
	Current Host-Host energy:                     0.0000000000 [K]  (avg.           0.0000000000)
	Current Host-Adsorbate energy:           -38340.8648075694 [K]  (avg.      -32571.5438373875)
	Current Host-Cation energy:                   0.0000000000 [K]  (avg.           0.0000000000)
	Current Adsorbate-Adsorbate energy:       -1230.9716003038 [K]  (avg.       -1299.3243541251)
	Current Cation-Cation energy:                 0.0000000000 [K]  (avg.           0.0000000000)
	Current Adsorbate-Cation energy:              0.0000000000 [K]  (avg.           0.0000000000)



Current cycle: 60 out of 100
========================================================================================================

Net charge: -3.747e-15 (F: -3.747e-15, A: 0, C: 0)
Current Box:  26.87680  -4.47951   4.47951 [A]   Average Box:  26.87680  -4.47951   4.47951 [A]
               0.00000  30.14944  15.07473 [A]                  0.00000  30.14944  15.07473 [A]
               0.00000   0.00000  26.11018 [A]                  0.00000   0.00000  26.11018 [A]
Box-lengths:   26.87680  30.48040  30.48040 [A] Average:  26.87680  30.48040  30.48040 [A]
Box-angles:   62.12120  81.54900  98.45100 [degrees] Average:  62.12120  81.54900  98.45100 [degrees]
Volume: 21157.61265 [A^3] Average Volume: 21157.61265 [A^3]

Loadings per component:
----------------------------------------------------------------------------------------------------------------------------------------------------
Component 0 (CO2), current number of integer/fractional/reaction molecules: 19/0/0 (avg.  18.22951), density:  65.61108 (avg.  62.95040) [kg/m^3]
	absolute adsorption:   1.18750 (avg.   1.13934) [mol/uc],   1.6309015017 (avg.   1.5647648575) [mol/kg],  71.7577089915 (avg.  68.8477760126) [mg/g]
	                      36.5549867051 (avg.  35.0726015669) [cm^3 STP/g],   33.4237246900 (avg.  32.0683191158) [cm^3 STP/cm^3]
	excess adsorption:     1.1454321239 (avg.   1.0768442623) [mol/uc],   1.5731258703 (avg.   1.4789279364) [mol/kg],  69.2156505411 (avg.  65.0710544867) [mg/g]
	                      35.2600051043 (avg.  33.1486548982) [cm^3 STP/g],   32.2396698618 (avg.  30.3091757111) [cm^3 STP/cm^3]
----------------------------------------------------------------------------------------------------------------------------------------------------
Degrees of freedom: 95 0 95 0
Number of Framework-atoms:    864
Number of Adsorbates:          19 (19 integer, 0 fractional, 0 reaction)
Number of Cations:              0 (0 integer, 0 fractional, 0 reaction)

Current total potential energy:            -49477.5395786903 [K]  (avg.      -42685.4801225452)
	Current Host-Host energy:                     0.0000000000 [K]  (avg.           0.0000000000)
	Current Host-Adsorbate energy:           -39689.1533501906 [K]  (avg.      -32782.6046041676)
	Current Host-Cation energy:                   0.0000000000 [K]  (avg.           0.0000000000)
	Current Adsorbate-Adsorbate energy:       -1058.4600316071 [K]  (avg.       -1215.2122703257)
	Current Cation-Cation energy:                 0.0000000000 [K]  (avg.           0.0000000000)
	Current Adsorbate-Cation energy:              0.0000000000 [K]  (avg.           0.0000000000)



Current cycle: 70 out of 100
========================================================================================================

Net charge: -3.747e-15 (F: -3.747e-15, A: 0, C: 0)
Current Box:  26.87680  -4.47951   4.47951 [A]   Average Box:  26.87680  -4.47951   4.47951 [A]
               0.00000  30.14944  15.07473 [A]                  0.00000  30.14944  15.07473 [A]
               0.00000   0.00000  26.11018 [A]                  0.00000   0.00000  26.11018 [A]
Box-lengths:   26.87680  30.48040  30.48040 [A] Average:  26.87680  30.48040  30.48040 [A]
Box-angles:   62.12120  81.54900  98.45100 [degrees] Average:  62.12120  81.54900  98.45100 [degrees]
Volume: 21157.61265 [A^3] Average Volume: 21157.61265 [A^3]

Loadings per component:
----------------------------------------------------------------------------------------------------------------------------------------------------
Component 0 (CO2), current number of integer/fractional/reaction molecules: 17/0/0 (avg.  18.21127), density:  58.70465 (avg.  62.88741) [kg/m^3]
	absolute adsorption:   1.06250 (avg.   1.13820) [mol/uc],   1.4592276594 (avg.   1.5631991413) [mol/kg],  64.2042659398 (avg.  68.7788863796) [mg/g]
	                      32.7070933677 (avg.  35.0375076424) [cm^3 STP/g],   29.9054378805 (avg.  32.0362313003) [cm^3 STP/cm^3]
	excess adsorption:     1.0204321239 (avg.   1.0757042254) [mol/uc],   1.4014520280 (avg.   1.4773622202) [mol/kg],  61.6622074894 (avg.  65.0021648537) [mg/g]
	                      31.4121117669 (avg.  33.1135609738) [cm^3 STP/g],   28.7213830523 (avg.  30.2770878956) [cm^3 STP/cm^3]
----------------------------------------------------------------------------------------------------------------------------------------------------
Degrees of freedom: 85 0 85 0
Number of Framework-atoms:    864
Number of Adsorbates:          17 (17 integer, 0 fractional, 0 reaction)
Number of Cations:              0 (0 integer, 0 fractional, 0 reaction)

Current total potential energy:            -45097.0763539654 [K]  (avg.      -43272.8717177210)
	Current Host-Host energy:                     0.0000000000 [K]  (avg.           0.0000000000)
	Current Host-Adsorbate energy:           -35543.8236564031 [K]  (avg.      -33365.6769332717)
	Current Host-Cation energy:                   0.0000000000 [K]  (avg.           0.0000000000)
	Current Adsorbate-Adsorbate energy:        -934.1396486303 [K]  (avg.       -1220.6060857163)
	Current Cation-Cation energy:                 0.0000000000 [K]  (avg.           0.0000000000)
	Current Adsorbate-Cation energy:              0.0000000000 [K]  (avg.           0.0000000000)



Current cycle: 80 out of 100
========================================================================================================

Net charge: -3.747e-15 (F: -3.747e-15, A: 0, C: 0)
Current Box:  26.87680  -4.47951   4.47951 [A]   Average Box:  26.87680  -4.47951   4.47951 [A]
               0.00000  30.14944  15.07473 [A]                  0.00000  30.14944  15.07473 [A]
               0.00000   0.00000  26.11018 [A]                  0.00000   0.00000  26.11018 [A]
Box-lengths:   26.87680  30.48040  30.48040 [A] Average:  26.87680  30.48040  30.48040 [A]
Box-angles:   62.12120  81.54900  98.45100 [degrees] Average:  62.12120  81.54900  98.45100 [degrees]
Volume: 21157.61265 [A^3] Average Volume: 21157.61265 [A^3]

Loadings per component:
----------------------------------------------------------------------------------------------------------------------------------------------------
Component 0 (CO2), current number of integer/fractional/reaction molecules: 19/0/0 (avg.  18.56790), density:  65.61108 (avg.  64.11895) [kg/m^3]
	absolute adsorption:   1.18750 (avg.   1.16049) [mol/uc],   1.6309015017 (avg.   1.5938114740) [mol/kg],  71.7577089915 (avg.  70.1257922828) [mg/g]
	                      36.5549867051 (avg.  35.7236517248) [cm^3 STP/g],   33.4237246900 (avg.  32.6636009966) [cm^3 STP/cm^3]
	excess adsorption:     1.1454321239 (avg.   1.0979938272) [mol/uc],   1.5731258703 (avg.   1.5079745529) [mol/kg],  69.2156505411 (avg.  66.3490707570) [mg/g]
	                      35.2600051043 (avg.  33.7997050561) [cm^3 STP/g],   32.2396698618 (avg.  30.9044575918) [cm^3 STP/cm^3]
----------------------------------------------------------------------------------------------------------------------------------------------------
Degrees of freedom: 95 0 95 0
Number of Framework-atoms:    864
Number of Adsorbates:          19 (19 integer, 0 fractional, 0 reaction)
Number of Cations:              0 (0 integer, 0 fractional, 0 reaction)

Current total potential energy:            -44301.0869751312 [K]  (avg.      -44389.0897530482)
	Current Host-Host energy:                     0.0000000000 [K]  (avg.           0.0000000000)
	Current Host-Adsorbate energy:           -33535.1872154785 [K]  (avg.      -34429.5152746847)
	Current Host-Cation energy:                   0.0000000000 [K]  (avg.           0.0000000000)
	Current Adsorbate-Adsorbate energy:       -2035.9735627601 [K]  (avg.       -1253.1461854294)
	Current Cation-Cation energy:                 0.0000000000 [K]  (avg.           0.0000000000)
	Current Adsorbate-Cation energy:              0.0000000000 [K]  (avg.           0.0000000000)



Current cycle: 90 out of 100
========================================================================================================

Net charge: -3.747e-15 (F: -3.747e-15, A: 0, C: 0)
Current Box:  26.87680  -4.47951   4.47951 [A]   Average Box:  26.87680  -4.47951   4.47951 [A]
               0.00000  30.14944  15.07473 [A]                  0.00000  30.14944  15.07473 [A]
               0.00000   0.00000  26.11018 [A]                  0.00000   0.00000  26.11018 [A]
Box-lengths:   26.87680  30.48040  30.48040 [A] Average:  26.87680  30.48040  30.48040 [A]
Box-angles:   62.12120  81.54900  98.45100 [degrees] Average:  62.12120  81.54900  98.45100 [degrees]
Volume: 21157.61265 [A^3] Average Volume: 21157.61265 [A^3]

Loadings per component:
----------------------------------------------------------------------------------------------------------------------------------------------------
Component 0 (CO2), current number of integer/fractional/reaction molecules: 15/0/0 (avg.  18.23077), density:  51.79822 (avg.  62.95476) [kg/m^3]
	absolute adsorption:   0.93750 (avg.   1.13942) [mol/uc],   1.2875538171 (avg.   1.5648731008) [mol/kg],  56.6508228881 (avg.  68.8525385870) [mg/g]
	                      28.8592000303 (avg.  35.0750277292) [cm^3 STP/g],   26.3871510710 (avg.  32.0705374556) [cm^3 STP/cm^3]
	excess adsorption:     0.8954321239 (avg.   1.0769230769) [mol/uc],   1.2297781857 (avg.   1.4790361796) [mol/kg],  54.1087644376 (avg.  65.0758170612) [mg/g]
	                      27.5642184295 (avg.  33.1510810605) [cm^3 STP/g],   25.2030962428 (avg.  30.3113940508) [cm^3 STP/cm^3]
----------------------------------------------------------------------------------------------------------------------------------------------------
Degrees of freedom: 75 0 75 0
Number of Framework-atoms:    864
Number of Adsorbates:          15 (15 integer, 0 fractional, 0 reaction)
Number of Cations:              0 (0 integer, 0 fractional, 0 reaction)

Current total potential energy:            -35374.5019359549 [K]  (avg.      -43575.0352029213)
	Current Host-Host energy:                     0.0000000000 [K]  (avg.           0.0000000000)
	Current Host-Adsorbate energy:           -25690.7082655966 [K]  (avg.      -33615.9934967907)
	Current Host-Cation energy:                   0.0000000000 [K]  (avg.           0.0000000000)
	Current Adsorbate-Adsorbate energy:       -1174.7915714664 [K]  (avg.       -1271.1591453268)
	Current Cation-Cation energy:                 0.0000000000 [K]  (avg.           0.0000000000)
	Current Adsorbate-Cation energy:              0.0000000000 [K]  (avg.           0.0000000000)



+++++++++++++++++++++++++++++++++++++++++++++++++++++++++++++++++++++++++
Finishing simulation
+++++++++++++++++++++++++++++++++++++++++++++++++++++++++++++++++++++++++




Current (running energy) Energy Status
===========================================================================

Internal energy:
Host stretch energy:                                            0.00000000
Host UreyBradley energy:                                        0.00000000
Host bend energy:                                               0.00000000
Host inversion-bend energy:                                     0.00000000
Host torsion energy:                                            0.00000000
Host improper torsion energy:                                   0.00000000
Host out-of-plane energy:                                       0.00000000
Host stretch/stretch energy:                                    0.00000000
Host bend/bend energy:                                          0.00000000
Host stretch/bend energy:                                       0.00000000
Host stretch/torsion energy:                                    0.00000000
Host bend/torsion energy:                                       0.00000000

Adsorbate stretch energy:                                       0.00000000
Adsorbate UreyBradley energy:                                   0.00000000
Adsorbate bend energy:                                          0.00000000
Adsorbate inversion-bend energy:                                0.00000000
Adsorbate torsion energy:                                       0.00000000
Adsorbate improper torsion energy:                              0.00000000
Adsorbate out-of-plane energy:                                  0.00000000
Adsorbate stretch/stretch energy:                               0.00000000
Adsorbate bend/bend energy:                                     0.00000000
Adsorbate stretch/bend energy:                                  0.00000000
Adsorbate stretch/torsion energy:                               0.00000000
Adsorbate bend/torsion energy:                                  0.00000000
Adsorbate intra VDW energy:                                     0.00000000
Adsorbate intra charge-charge Coulomb energy:                   0.00000000
Adsorbate intra charge-bonddipole Coulomb energy:               0.00000000
Adsorbate intra bonddipole-bonddipole Coulomb energy:           0.00000000

Cation stretch energy:                                          0.00000000
Cation UreyBradley energy:                                      0.00000000
Cation bend energy:                                             0.00000000
Cation inversion-bend energy:                                   0.00000000
Cation torsion energy:                                          0.00000000
Cation improper torsion energy:                                 0.00000000
Cation out-of-plane energy:                                     0.00000000
Cation stretch/stretch energy:                                  0.00000000
Cation bend/bend energy:                                        0.00000000
Cation stretch/bend energy:                                     0.00000000
Cation stretch/torsion energy:                                  0.00000000
Cation bend/torsion energy:                                     0.00000000
Cation intra VDW energy:                                        0.00000000
Cation intra charge-charge Coulomb energy:                      0.00000000
Cation intra charge-bonddipole Coulomb energy:                  0.00000000
Cation intra bonddipole-bonddipole Coulomb energy:              0.00000000

Host/Host energy:                                             0.00000000
	Host/Host VDW energy:                                         0.00000000
	Host/Host Coulomb energy:                                     0.00000000
	Host/Host charge-charge Real energy:                          0.00000000
	Host/Host charge-charge Fourier energy:                       0.00000000
	Host/Host charge-bonddipole Real energy:                      0.00000000
	Host/Host charge-bonddipole Fourier energy:                   0.00000000
	Host/Host bondipole-bonddipole Real energy:                   0.00000000
	Host/Host bondipole-bonddipole Fourier energy:                0.00000000

Host/Adsorbate energy:                                   -30080.50524992
	Host/Adsorbate VDW energy:                               -28956.02205960
	Host/Adsorbate Coulomb energy:                            -1124.48319031
	Host/Adsorbate charge-charge Real energy:                  -886.82363585
	Host/Adsorbate charge-charge Fourier energy:               -237.65955447
	Host/Adsorbate charge-bonddipole Real energy:                 0.00000000
	Host/Adsorbate charge-bonddipole Fourier energy:              0.00000000
	Host/Adsorbate bondipole-bonddipole Real energy:              0.00000000
	Host/Adsorbate bondipole-bonddipole Fourier energy:           0.00000000

Host/Cation energy:                                           0.00000000
	Host/Cation VDW energy:                                       0.00000000
	Host/Cation Coulomb energy:                                   0.00000000
	Host/Cation charge-charge Real energy:                        0.00000000
	Host/Cation charge-charge Fourier energy:                     0.00000000
	Host/Cation charge-bonddipole Real energy:                    0.00000000
	Host/Cation charge-bonddipole Fourier energy:                 0.00000000
	Host/Cation bondipole-bonddipole Real energy:                 0.00000000
	Host/Cation bondipole-bonddipole Fourier energy:              0.00000000

Adsorbate/Adsorbate energy:                                    -1510.24946433
	Adsorbate/Adsorbate VDW energy:                                -1107.60319106
	Adsorbate/Adsorbate Coulomb energy:                             -402.64627327
	Adsorbate/Adsorbate charge-charge Real energy:                  -357.10483082
	Adsorbate/Adsorbate charge-charge Fourier energy:                -45.54144246
	Adsorbate/Adsorbate charge-bonddipole Real energy:                 0.00000000
	Adsorbate/Adsorbate charge-bonddipole Fourier energy:              0.00000000
	Adsorbate/Adsorbate bondipole-bonddipole Real energy:              0.00000000
	Adsorbate/Adsorbate bondipole-bonddipole Fourier energy:           0.00000000

Adsorbate/Cation energy:                                           0.00000000
	Adsorbate/Cation VDW energy:                                       0.00000000
	Adsorbate/Cation Coulomb energy:                                   0.00000000
	Adsorbate/Cation charge-charge Real energy:                        0.00000000
	Adsorbate/Cation charge-charge Fourier energy:                     0.00000000
	Adsorbate/Cation charge-bonddipole Real energy:                    0.00000000
	Adsorbate/Cation charge-bonddipole Fourier energy:                 0.00000000
	Adsorbate/Cation bondipole-bonddipole Real energy:                 0.00000000
	Adsorbate/Cation bondipole-bonddipole Fourier energy:              0.00000000

Cation/Cation energy:                                           0.00000000
	Cation/Cation VDW energy:                                       0.00000000
	Cation/Cation Coulomb energy:                                   0.00000000
	Cation/Cation charge-charge Real energy:                        0.00000000
	Cation/Cation charge-charge Fourier energy:                     0.00000000
	Cation/Cation charge-bonddipole Real energy:                    0.00000000
	Cation/Cation charge-bonddipole Fourier energy:                 0.00000000
	Cation/Cation bondipole-bonddipole Real energy:                 0.00000000
	Cation/Cation bondipole-bonddipole Fourier energy:              0.00000000

Polarization energy:
	Host polarization energy:                                     0.00000000
	Adsorbate polarization energy:                                0.00000000
	Cation polarization energy:                                   0.00000000
	Host back-polarization energy:                                     0.00000000
	Adsorbate back-polarization energy:                                0.00000000
	Cation back-polarization energy:                                   0.00000000

Tail-correction energy:                                   -8619.11304893

Distance constraints energy:                                  0.00000000
Angle constraints energy:                                     0.00000000
Dihedral constraints energy:                                  0.00000000
Inversion-bend constraints energy:                            0.00000000
Out-of-plane distance constraints energy:                     0.00000000
Exclusion constraints energy:                                 0.00000000

===================================================================
Total energy: -40209.867763176633
	Total Van der Waals: -30063.625251
	Total Coulomb: -1527.129464

	Total Polarization: 0.000000

Monte-Carlo moves statistics
===========================================================================

Performance of the small-MC scheme
==================================

Component 0 [CO2]
----------------------------------------------
Bead: 0
	maximum bond length change          : 0.300000
	bond length change acceptence       : 0.000000 [%]
	maximum change bend angle           : 0.300000
	change bend angle acceptence        : 0.000000 [%]

Bead: 1
	maximum bond length change          : 0.300000
	bond length change acceptence       : 0.000000 [%]

Bead: 2
	maximum bond length change          : 0.300000
	bond length change acceptence       : 0.000000 [%]



Performance of the translation move:
======================================
Component 0 [CO2]
	total        151.000000 133.000000 123.000000
	succesfull   130.000000 74.000000 88.000000
	accepted   0.860927 0.556391 0.715447
	displacement 0.975000 1.000000 0.715447


Random translation move was OFF for all components

Performance of the rotation move:
=================================
Component 0 [CO2]
	total        134.000000 137.000000 125.000000
	succesfull   118.000000 99.000000 87.000000
	accepted   0.880597 0.722628 0.696000
	angle-change 28.125000 54.444444 69.672131


Random rotation move was OFF for all components

Performance of the swap addition move:
======================================
Component [CO2] total tried: 424.000000 succesfull growth: 424.000000 (100.000000 [%]) accepted: 255.000000 (60.141509 [%])

Performance of the swap deletion move:
======================================
Component [CO2] total tried: 382.000000 succesfull growth: 382.000000 (100.000000 [%]) accepted: 251.000000 (65.706806 [%])

Performance of the Reinsertion move:
====================================
Component [CO2] total tried: 425.000000 succesfull growth: 425.000000 (100.000000 [%]) accepted: 228.000000 (53.647059 [%])

Reinsertion-in-plane move was OFF for all components

Reinsertion-in-place move was OFF for all components

Partial reinsertion move was OFF for all components

Identity change move was OFF for all components

Parallel tempering move was OFF

Hyper parallel tempering move was OFF

Parallel mol-fraction move was OFF

Chiral inversion move was OFF

Volume move was OFF

Box shape change move was OFF

Framework change move was OFF

Framework shift move was OFF

Hybrid MC/MD move in the NVE-ensemble was OFF

Hybrid MC/MD in the NPH-ensemble move was OFF

Hybrid MC/MD in the NPH-ensemble (Parrinello-Rahman) move was OFF

Gibbs volume change move was OFF

Gibbs swap move was OFF for all components

Gibbs identity change move was OFF for all components

CFMC swap lambda move was OFF for all components

CB/CFCMC swap lambda move was OFF for all components

CFMC Gibbs lambda move was OFF for all components

CB/CFMC Gibbs lambda move was OFF for all components

No reactions present, RXMC is OFF

Exchange fractional-particle move was OFF for all components

CFMC Gibbs Lambda-change move was OFF for all components

CFMC Gibbs Swap-Fractional-Molecule-To-Other-Box move was OFF for all components

CFMC Gibbs Swap-Fractional-Molecule-To-Other-Box move was OFF for all components

CFMC swap lambda move was OFF for all components

Gibbs Widom move was OFF for all components



Total CPU timings:
===========================================
initialization:              0.371122 [s]
equilibration:                      0 [s]
production run:              4.374867 [s]
total time:                  4.745989 [s]

Production run CPU timings of the MC moves:
===========================================
Component: 0 (CO2)
	translation:                                  0.233949 [s]
	random translation:                                  0 [s]
	rotation:                                     0.233666 [s]
	random rotation:                                     0 [s]
	partial reinsertion:                                 0 [s]
	reinsertion:                                  1.845287 [s]
	reinsertion in-place:                                0 [s]
	reinsertion in-plane:                                0 [s]
	identity switch:                                     0 [s]
	swap (insertion):                             1.090369 [s]
	swap (deletion):                              0.958665 [s]
	swap lambda (CFMC):                                  0 [s]
	swap lambda (CB/CFMC):                               0 [s]
	Widom:                                               0 [s]
	CF-Widom:                                            0 [s]
	Gibbs Widom:                                         0 [s]
	surface area:                                        0 [s]
	Gibbs particle transform:                            0 [s]
	Gibbs particle transform (CFMC):                     0 [s]
	Gibbs particle transform (CB/CFMC):                  0 [s]
	Gibbs indentity change:                              0 [s]
	Exchange fract./int. particle:                       0 [s]
	Swap Gibbs-fractional molecules:                     0 [s]
	Change Gibs-lambda value:                            0 [s]
	Convert Gibbs fract. to integer:                     0 [s]

Total all components:
	translation:                                  0.233949 [s]
	random translation:                                  0 [s]
	rotation:                                     0.233666 [s]
	random rotation:                                     0 [s]
	partial reinsertion:                                 0 [s]
	reinsertion:                                  1.845287 [s]
[...]
	Block[ 1]            0.00000 [K]
	Block[ 2]            0.00000 [K]
	Block[ 3]            0.00000 [K]
	Block[ 4]            0.00000 [K]
	------------------------------------------------------------------------------
	Average              0.00000 [K] +/-            0.00000 [K]

Average Cation Bend angle inversion energy:
===========================================
	Block[ 0]            0.00000 [K]
	Block[ 1]            0.00000 [K]
	Block[ 2]            0.00000 [K]
	Block[ 3]            0.00000 [K]
	Block[ 4]            0.00000 [K]
	------------------------------------------------------------------------------
	Average              0.00000 [K] +/-            0.00000 [K]

Average Cation Torsion energy:
==============================
	Block[ 0]            0.00000 [K]
	Block[ 1]            0.00000 [K]
	Block[ 2]            0.00000 [K]
	Block[ 3]            0.00000 [K]
	Block[ 4]            0.00000 [K]
	------------------------------------------------------------------------------
	Average              0.00000 [K] +/-            0.00000 [K]

Average Cation Improper Torsion energy:
=======================================
	Block[ 0]            0.00000 [K]
	Block[ 1]            0.00000 [K]
	Block[ 2]            0.00000 [K]
	Block[ 3]            0.00000 [K]
	Block[ 4]            0.00000 [K]
	------------------------------------------------------------------------------
	Average              0.00000 [K] +/-            0.00000 [K]

Average Cation Bond-Bond cross term energy:
=================================================
	Block[ 0]            0.00000 [K]
	Block[ 1]            0.00000 [K]
	Block[ 2]            0.00000 [K]
	Block[ 3]            0.00000 [K]
	Block[ 4]            0.00000 [K]
	------------------------------------------------------------------------------
	Average              0.00000 [K] +/-            0.00000 [K]

Average Cation Bend-Bend cross term energy:
===========================================
	Block[ 0]            0.00000 [K]
	Block[ 1]            0.00000 [K]
	Block[ 2]            0.00000 [K]
	Block[ 3]            0.00000 [K]
	Block[ 4]            0.00000 [K]
	------------------------------------------------------------------------------
	Average              0.00000 [K] +/-            0.00000 [K]

Average Cation Bond-Bend cross term energy:
==============================================
	Block[ 0]            0.00000 [K]
	Block[ 1]            0.00000 [K]
	Block[ 2]            0.00000 [K]
	Block[ 3]            0.00000 [K]
	Block[ 4]            0.00000 [K]
	------------------------------------------------------------------------------
	Average              0.00000 [K] +/-            0.00000 [K]

Average Cation Bond-Torsion cross term energy:
==============================================
	Block[ 0]            0.00000 [K]
	Block[ 1]            0.00000 [K]
	Block[ 2]            0.00000 [K]
	Block[ 3]            0.00000 [K]
	Block[ 4]            0.00000 [K]
	------------------------------------------------------------------------------
	Average              0.00000 [K] +/-            0.00000 [K]

Average Cation Bend-Torsion cross term energy:
==============================================
	Block[ 0]            0.00000 [K]
	Block[ 1]            0.00000 [K]
	Block[ 2]            0.00000 [K]
	Block[ 3]            0.00000 [K]
	Block[ 4]            0.00000 [K]
	------------------------------------------------------------------------------
	Average              0.00000 [K] +/-            0.00000 [K]

Average Cation Intra Van der Waals energy:
==========================================
	Block[ 0]            0.00000 [K]
	Block[ 1]            0.00000 [K]
	Block[ 2]            0.00000 [K]
	Block[ 3]            0.00000 [K]
	Block[ 4]            0.00000 [K]
	------------------------------------------------------------------------------
	Average              0.00000 [K] +/-            0.00000 [K]

Average Cation Intra charge-charge Coulomb energy:
====================================
	Block[ 0]            0.00000 [K]
	Block[ 1]            0.00000 [K]
	Block[ 2]            0.00000 [K]
	Block[ 3]            0.00000 [K]
	Block[ 4]            0.00000 [K]
	------------------------------------------------------------------------------
	Average              0.00000 [K] +/-            0.00000 [K]

Average Cation Intra charge-bonddipole Coulomb energy:
====================================
	Block[ 0]            0.00000 [K]
	Block[ 1]            0.00000 [K]
	Block[ 2]            0.00000 [K]
	Block[ 3]            0.00000 [K]
	Block[ 4]            0.00000 [K]
	------------------------------------------------------------------------------
	Average              0.00000 [K] +/-            0.00000 [K]

Average Cation Intra bonddipole-bonddipole Coulomb energy:
====================================
	Block[ 0]            0.00000 [K]
	Block[ 1]            0.00000 [K]
	Block[ 2]            0.00000 [K]
	Block[ 3]            0.00000 [K]
	Block[ 4]            0.00000 [K]
	------------------------------------------------------------------------------
	Average              0.00000 [K] +/-            0.00000 [K]

Average Host-Host energy:
=========================
	Block[ 0] 0.00000            Van der Waals: 0.00000            Coulomb: 0.00000            [K]
	Block[ 1] 0.00000            Van der Waals: 0.00000            Coulomb: 0.00000            [K]
	Block[ 2] 0.00000            Van der Waals: 0.00000            Coulomb: 0.00000            [K]
	Block[ 3] 0.00000            Van der Waals: 0.00000            Coulomb: 0.00000            [K]
	Block[ 4] 0.00000            Van der Waals: 0.00000            Coulomb: 0.00000            [K]
	------------------------------------------------------------------------------
	Average   0.00000            Van der Waals: 0.000000           Coulomb: 0.00000            [K]
	      +/- 0.00000                       +/- 0.000000                +/- 0.00000            [K]

Average Adsorbate-Adsorbate energy:
===================================
	Block[ 0] -1589.09491        Van der Waals: -1357.58215        Coulomb: -231.51275         [K]
	Block[ 1] -1109.55631        Van der Waals: -1013.45771        Coulomb: -96.09860          [K]
	Block[ 2] -954.82321         Van der Waals: -897.42778         Coulomb: -57.39543          [K]
	Block[ 3] -1319.96895        Van der Waals: -1131.96004        Coulomb: -188.00891         [K]
	Block[ 4] -1116.14807        Van der Waals: -1014.38554        Coulomb: -101.76253         [K]
	------------------------------------------------------------------------------
	Average   -1217.91829        Van der Waals: -1082.962643       Coulomb: -134.95565         [K]
	      +/- 437.72588                     +/- 312.119925              +/- 128.88806          [K]

Average Cation-Cation energy:
=============================
	Block[ 0] 0.00000            Van der Waals: 0.00000            Coulomb: 0.00000            [K]
	Block[ 1] 0.00000            Van der Waals: 0.00000            Coulomb: 0.00000            [K]
	Block[ 2] 0.00000            Van der Waals: 0.00000            Coulomb: 0.00000            [K]
	Block[ 3] 0.00000            Van der Waals: 0.00000            Coulomb: 0.00000            [K]
	Block[ 4] 0.00000            Van der Waals: 0.00000            Coulomb: 0.00000            [K]
	------------------------------------------------------------------------------
	Average   0.00000            Van der Waals: 0.000000           Coulomb: 0.00000            [K]
	      +/- 0.00000                       +/- 0.000000                +/- 0.00000            [K]

Average Host-Adsorbate energy:
==============================
	Block[ 0] -32305.90184       Van der Waals: -31418.44940       Coulomb: -887.45243         [K]
	Block[ 1] -32911.43222       Van der Waals: -30867.51870       Coulomb: -2043.91352        [K]
	Block[ 2] -32785.15232       Van der Waals: -30854.27041       Coulomb: -1930.88191        [K]
	Block[ 3] -39760.29113       Van der Waals: -37232.91653       Coulomb: -2527.37460        [K]
	Block[ 4] -25284.06968       Van der Waals: -24025.01983       Coulomb: -1259.04985        [K]
	------------------------------------------------------------------------------
	Average   -32609.36944       Van der Waals: -30879.634974      Coulomb: -1729.73446        [K]
	      +/- 9165.58483                    +/- 8373.340862             +/- 1168.37719         [K]

Average Host-Cation energy:
===========================
	Block[ 0] 0.00000            Van der Waals: 0.00000            Coulomb: 0.00000            [K]
	Block[ 1] 0.00000            Van der Waals: 0.00000            Coulomb: 0.00000            [K]
	Block[ 2] 0.00000            Van der Waals: 0.00000            Coulomb: 0.00000            [K]
	Block[ 3] 0.00000            Van der Waals: 0.00000            Coulomb: 0.00000            [K]
	Block[ 4] 0.00000            Van der Waals: 0.00000            Coulomb: 0.00000            [K]
	------------------------------------------------------------------------------
	Average   0.00000            Van der Waals: 0.000000           Coulomb: 0.00000            [K]
	      +/- 0.00000                       +/- 0.000000                +/- 0.00000            [K]

Average Adsorbate-Cation energy:
================================
	Block[ 0] 0.00000            Van der Waals: 0.00000            Coulomb: 0.00000            [K]
	Block[ 1] 0.00000            Van der Waals: 0.00000            Coulomb: 0.00000            [K]
	Block[ 2] 0.00000            Van der Waals: 0.00000            Coulomb: 0.00000            [K]
	Block[ 3] 0.00000            Van der Waals: 0.00000            Coulomb: 0.00000            [K]
	Block[ 4] 0.00000            Van der Waals: 0.00000            Coulomb: 0.00000            [K]
	------------------------------------------------------------------------------
	Average   0.00000            Van der Waals: 0.000000           Coulomb: 0.00000            [K]
	      +/- 0.00000                       +/- 0.000000                +/- 0.00000            [K]

Host polarization energy:
=======================
	Block[ 0]            0.00000 [K]
	Block[ 1]            0.00000 [K]
	Block[ 2]            0.00000 [K]
	Block[ 3]            0.00000 [K]
	Block[ 4]            0.00000 [K]
	------------------------------------------------------------------------------
	Average              0.00000 [K] +/-            0.00000 [K]

Adsorbate polarization energy:
=======================
	Block[ 0]            0.00000 [K]
	Block[ 1]            0.00000 [K]
	Block[ 2]            0.00000 [K]
	Block[ 3]            0.00000 [K]
	Block[ 4]            0.00000 [K]
	------------------------------------------------------------------------------
	Average              0.00000 [K] +/-            0.00000 [K]

Cation polarization energy:
=======================
	Block[ 0]            0.00000 [K]
	Block[ 1]            0.00000 [K]
	Block[ 2]            0.00000 [K]
	Block[ 3]            0.00000 [K]
	Block[ 4]            0.00000 [K]
	------------------------------------------------------------------------------
	Average              0.00000 [K] +/-            0.00000 [K]

Host back-polarization energy:
=======================
	Block[ 0]            0.00000 [K]
	Block[ 1]            0.00000 [K]
	Block[ 2]            0.00000 [K]
	Block[ 3]            0.00000 [K]
	Block[ 4]            0.00000 [K]
	------------------------------------------------------------------------------
	Average              0.00000 [K] +/-            0.00000 [K]

Adsorbate back-polarization energy:
=======================
	Block[ 0]            0.00000 [K]
	Block[ 1]            0.00000 [K]
	Block[ 2]            0.00000 [K]
	Block[ 3]            0.00000 [K]
	Block[ 4]            0.00000 [K]
	------------------------------------------------------------------------------
	Average              0.00000 [K] +/-            0.00000 [K]

Cation back-polarization energy:
=======================
	Block[ 0]            0.00000 [K]
	Block[ 1]            0.00000 [K]
	Block[ 2]            0.00000 [K]
	Block[ 3]            0.00000 [K]
	Block[ 4]            0.00000 [K]
	------------------------------------------------------------------------------
	Average              0.00000 [K] +/-            0.00000 [K]

Tail-correction energy:
=======================
	Block[ 0]        -8736.09005 [K]
	Block[ 1]        -8672.29789 [K]
	Block[ 2]        -8652.48866 [K]
	Block[ 3]        -8763.66168 [K]
	Block[ 4]        -8479.73539 [K]
	------------------------------------------------------------------------------
	Average          -8660.85473 [K] +/-          198.46365 [K]

Distance-constraints energy:
=======================
	Block[ 0]            0.00000 [K]
	Block[ 1]            0.00000 [K]
	Block[ 2]            0.00000 [K]
	Block[ 3]            0.00000 [K]
	Block[ 4]            0.00000 [K]
	------------------------------------------------------------------------------
	Average              0.00000 [K] +/-            0.00000 [K]

Angle-constraints energy:
=======================
	Block[ 0]            0.00000 [K]
	Block[ 1]            0.00000 [K]
	Block[ 2]            0.00000 [K]
	Block[ 3]            0.00000 [K]
	Block[ 4]            0.00000 [K]
	------------------------------------------------------------------------------
	Average              0.00000 [K] +/-            0.00000 [K]

Dihedral-constraints energy:
=======================
	Block[ 0]            0.00000 [K]
	Block[ 1]            0.00000 [K]
	Block[ 2]            0.00000 [K]
	Block[ 3]            0.00000 [K]
	Block[ 4]            0.00000 [K]
	------------------------------------------------------------------------------
	Average              0.00000 [K] +/-            0.00000 [K]

Inversion-bend constraints energy:
=======================
	Block[ 0]            0.00000 [K]
	Block[ 1]            0.00000 [K]
	Block[ 2]            0.00000 [K]
	Block[ 3]            0.00000 [K]
	Block[ 4]            0.00000 [K]
	------------------------------------------------------------------------------
	Average              0.00000 [K] +/-            0.00000 [K]

Out-of-plane-distance constraints energy:
=======================
	Block[ 0]            0.00000 [K]
	Block[ 1]            0.00000 [K]
	Block[ 2]            0.00000 [K]
	Block[ 3]            0.00000 [K]
	Block[ 4]            0.00000 [K]
	------------------------------------------------------------------------------
	Average              0.00000 [K] +/-            0.00000 [K]

Exclusion-constraints energy:
=======================
	Block[ 0]            0.00000 [K]
	Block[ 1]            0.00000 [K]
	Block[ 2]            0.00000 [K]
	Block[ 3]            0.00000 [K]
	Block[ 4]            0.00000 [K]
	------------------------------------------------------------------------------
	Average              0.00000 [K] +/-            0.00000 [K]

Total energy:
=============
	Block[ 0]       -42631.08680 [K]
	Block[ 1]       -42693.28642 [K]
	Block[ 2]       -42392.46418 [K]
	Block[ 3]       -49843.92176 [K]
	Block[ 4]       -34879.95314 [K]
	------------------------------------------------------------------------------
	Average         -42488.14246 [K] +/-         9468.41931 [K]

Number of molecules:
====================

Component 0 [CO2]
-------------------------------------------------------------
	Block[ 0] 19.10000           [-]
	Block[ 1] 17.95000           [-]
	Block[ 2] 17.60000           [-]
	Block[ 3] 19.60000           [-]
	Block[ 4] 14.45000           [-]
	------------------------------------------------------------------------------
	Average                                     17.7400000000 +/-       3.5996666512 [-]
	Average loading absolute [molecules/unit cell]        1.1087500000 +/-       0.2249791657 [-]
	Average loading absolute [mol/kg framework]          1.5227469810 +/-       0.3089843025 [-]
	Average loading absolute [milligram/gram framework]         66.9990398689 +/-      13.5949385277 [-]
	Average loading absolute [cm^3 (STP)/gr framework]         34.1308139025 +/-       6.9255666620 [-]
	Average loading absolute [cm^3 (STP)/cm^3 framework]         31.2072040000 +/-       6.3323298488 [-]

	Block[ 0] 19.10000           [-]
	Block[ 1] 17.95000           [-]
	Block[ 2] 17.60000           [-]
	Block[ 3] 19.60000           [-]
	Block[ 4] 14.45000           [-]
	------------------------------------------------------------------------------
	Average                                     16.7400000000 +/-       3.5996666512 [-]
	Average loading excess [molecules/unit cell]        1.0462500000 +/-       0.2249791657 [-]
	Average loading excess [mol/kg framework]          1.4369100599 +/-       0.3089843025 [-]
	Average loading excess [milligram/gram framework]         63.2223183431 +/-      13.5949385277 [-]
	Average loading excess [cm^3 (STP)/gr framework]         32.2068672338 +/-       6.9255666620 [-]
	Average loading excess [cm^3 (STP)/cm^3 framework]         29.4480605953 +/-       6.3323298488 [-]


Average Widom Rosenbluth factor:
================================
	Block[ 0] 0 [-]
	Block[ 1] 0 [-]
	Block[ 2] 0 [-]
	Block[ 3] 0 [-]
	Block[ 4] 0 [-]
	------------------------------------------------------------------------------
	[CO2] Average Widom Rosenbluth-weight:   0 +/- 0.000000 [-]

Average Widom chemical potential:
=================================
	Block[ 0] 0 [-]
	Block[ 1] 0 [-]
	Block[ 2] 0 [-]
	Block[ 3] 0 [-]
	Block[ 4] 0 [-]
	------------------------------------------------------------------------------
	[CO2] Average chemical potential:   0 +/- 0.000000 [K]

Average Widom Ideal-gas contribution:
=====================================
	Block[ 0] 0 [-]
	Block[ 1] 0 [-]
	Block[ 2] 0 [-]
	Block[ 3] 0 [-]
	Block[ 4] 0 [-]
	------------------------------------------------------------------------------
	[CO2] Average Widom Ideal-gas chemical potential:   0 +/- 0.000000 [-]

Average Widom excess contribution:
==================================
	Block[ 0] 0 [-]
	Block[ 1] 0 [-]
	Block[ 2] 0 [-]
	Block[ 3] 0 [-]
	Block[ 4] 0 [-]
	------------------------------------------------------------------------------
	[CO2] Average Widom excess chemical potential:   0 +/- 0.000000 [-]

Average Gibbs Widom Rosenbluth factor:
======================================
	Block[ 0] 0 [-]
	Block[ 1] 0 [-]
	Block[ 2] 0 [-]
	Block[ 3] 0 [-]
	Block[ 4] 0 [-]
	------------------------------------------------------------------------------
	[CO2] Average Gibbs Widom Rosenbluth-weight:   0 +/- 0.000000 [-]

Average Gibbs Widom chemical potential:
=======================================
	Block[ 0] 0 [-]
	Block[ 1] 0 [-]
	Block[ 2] 0 [-]
	Block[ 3] 0 [-]
	Block[ 4] 0 [-]
	------------------------------------------------------------------------------
	[CO2] Average Gibbs chemical potential:   0 +/- 0.000000 [K]

Average Gibbs Widom Ideal-gas contribution:
===========================================
	Block[ 0] 0 [-]
	Block[ 1] 0 [-]
	Block[ 2] 0 [-]
	Block[ 3] 0 [-]
	Block[ 4] 0 [-]
	------------------------------------------------------------------------------
	[CO2] Average Gibbs Ideal-gas chemical potential:   0 +/- 0.000000 [-]

Average Gibbs Widom excess contribution:
===========================================
	Block[ 0] 0 [-]
	Block[ 1] 0 [-]
	Block[ 2] 0 [-]
	Block[ 3] 0 [-]
	Block[ 4] 0 [-]
	------------------------------------------------------------------------------
	[CO2] Average Gibbs excess chemical potential:   0 +/- 0.000000 [-]

Average Henry coefficient:
==========================
	Block[ 0] 0 [mol/kg/Pa]
	Block[ 1] 0 [mol/kg/Pa]
	Block[ 2] 0 [mol/kg/Pa]
	Block[ 3] 0 [mol/kg/Pa]
	Block[ 4] 0 [mol/kg/Pa]
	------------------------------------------------------------------------------
	[CO2] Average Henry coefficient:  0 +/- 0 [mol/kg/Pa]

Average adsorption energy <U_gh>_1-<U_h>_0 obtained from Widom-insertion:
(Note: the total heat of adsorption is dH=<U_gh>_1-<U_h>_0 - <U_g> - RT)
=========================================================================

Simulation finished,  0 warnings


Mon Nov 16 20:13:50 2020
Simulation finished on Monday, November 16.
The end time was 08:13 PM.

