 DBCSR| CPU Multiplication driver                                           BLAS
 DBCSR| Multrec recursion limit                                              512
 DBCSR| Multiplication stack size                                           1000
 DBCSR| Maximum elements for images                                    UNLIMITED
 DBCSR| Multiplicative factor virtual images                                   1
 DBCSR| Use multiplication densification                                       T
 DBCSR| Multiplication size stacks                                             3


  **** **** ******  **  PROGRAM STARTED AT               2021-01-13 14:20:09.454
 ***** ** ***  *** **   PROGRAM STARTED ON                         B126028.local
 **    ****   ******    PROGRAM STARTED BY                               leopold
 ***** **    ** ** **   PROGRAM PROCESS ID                                 37592
  **** **  *******  **  PROGRAM STARTED IN /private/var/folders/8y/7c7qkxcx5vxb7
                                           49rt3sw5sh40000gp/T/tmp0a_g26ef/be/f5
                                           /033b-65a2-401b-b890-6551e6f1cf71

 CP2K| version string:                                          CP2K version 7.1
 CP2K| source code revision number:                                  git:e635599
 CP2K| cp2kflags: omp no_statm_access accelerate                                
 CP2K| is freely available from                            https://www.cp2k.org/
 CP2K| Program compiled at                          Thu Dec 24 12:31:26 UTC 2020
 CP2K| Program compiled on                               Mac-1608811933078.local
 CP2K| Program compiled for                                  Darwin-x86-64-conda
 CP2K| Data directory path    /Users/runner/miniforge3/conda-bld/cp2k_1608812708
 CP2K| Input file name                                                 aiida.inp

 GLOBAL| Force Environment number                                              1
 GLOBAL| Basis set file name                                        BASIS_MOLOPT
 GLOBAL| Potential file name                                      GTH_POTENTIALS
 GLOBAL| MM Potential file name                                     MM_POTENTIAL
 GLOBAL| Coordinate file name                                   aiida.coords.xyz
 GLOBAL| Method name                                                        CP2K
 GLOBAL| Project name                                                      aiida
 GLOBAL| Preferred FFT library                                             FFTW3
 GLOBAL| Preferred diagonalization lib.                                       SL
 GLOBAL| Run type                                                           BSSE
 GLOBAL| All-to-all communication in single precision                          F
 GLOBAL| FFTs using library dependent lengths                                  F
 GLOBAL| Global print level                                               MEDIUM
 GLOBAL| MPI I/O enabled                                                       T
 GLOBAL| Total number of message passing processes                             1
 GLOBAL| Number of threads for this process                                    2
 GLOBAL| This output is from process                                           0
 GLOBAL| CPU model name                                                  UNKNOWN

 MEMORY| system memory details [Kb]
 MEMORY|                        rank 0           min           max       average
 MEMORY| MemTotal                    0             0             0             0
 MEMORY| MemFree                     0             0             0             0
 MEMORY| Buffers                     0             0             0             0
 MEMORY| Cached                      0             0             0             0
 MEMORY| Slab                        0             0             0             0
 MEMORY| SReclaimable                0             0             0             0
 MEMORY| MemLikelyFree               0             0             0             0

 WARNING : FFT library FFTW3 is not available  Trying FFTSG as a default

 *** Fundamental physical constants (SI units) ***

 *** Literature: B. J. Mohr and B. N. Taylor,
 ***             CODATA recommended values of the fundamental physical
 ***             constants: 2006, Web Version 5.1
 ***             http://physics.nist.gov/constants

 Speed of light in vacuum [m/s]                             2.99792458000000E+08
 Magnetic constant or permeability of vacuum [N/A**2]       1.25663706143592E-06
 Electric constant or permittivity of vacuum [F/m]          8.85418781762039E-12
 Planck constant (h) [J*s]                                  6.62606896000000E-34
 Planck constant (h-bar) [J*s]                              1.05457162825177E-34
 Elementary charge [C]                                      1.60217648700000E-19
 Electron mass [kg]                                         9.10938215000000E-31
 Electron g factor [ ]                                     -2.00231930436220E+00
 Proton mass [kg]                                           1.67262163700000E-27
 Fine-structure constant                                    7.29735253760000E-03
 Rydberg constant [1/m]                                     1.09737315685270E+07
 Avogadro constant [1/mol]                                  6.02214179000000E+23
 Boltzmann constant [J/K]                                   1.38065040000000E-23
 Atomic mass unit [kg]                                      1.66053878200000E-27
 Bohr radius [m]                                            5.29177208590000E-11

 *** Conversion factors ***

 [u] -> [a.u.]                                              1.82288848426455E+03
 [Angstrom] -> [Bohr] = [a.u.]                              1.88972613288564E+00
 [a.u.] = [Bohr] -> [Angstrom]                              5.29177208590000E-01
 [a.u.] -> [s]                                              2.41888432650478E-17
 [a.u.] -> [fs]                                             2.41888432650478E-02
 [a.u.] -> [J]                                              4.35974393937059E-18
 [a.u.] -> [N]                                              8.23872205491840E-08
 [a.u.] -> [K]                                              3.15774647902944E+05
 [a.u.] -> [kJ/mol]                                         2.62549961709828E+03
 [a.u.] -> [kcal/mol]                                       6.27509468713739E+02
 [a.u.] -> [Pa]                                             2.94210107994716E+13
 [a.u.] -> [bar]                                            2.94210107994716E+08
 [a.u.] -> [atm]                                            2.90362800883016E+08
 [a.u.] -> [eV]                                             2.72113838565563E+01
 [a.u.] -> [Hz]                                             6.57968392072181E+15
 [a.u.] -> [1/cm] (wave numbers)                            2.19474631370540E+05
 [a.u./Bohr**2] -> [1/cm]                                   5.14048714338585E+03
 

 CELL_TOP| Volume [angstrom^3]:                                         1375.527
 CELL_TOP| Vector a [angstrom     6.999     0.000     0.000    |a| =       6.999
 CELL_TOP| Vector b [angstrom    -2.334    15.064     0.000    |b| =      15.244
 CELL_TOP| Vector c [angstrom    -2.333    -7.532    13.046    |c| =      15.244
 CELL_TOP| Angle (b,c), alpha [degree]:                                  117.699
 CELL_TOP| Angle (a,c), beta  [degree]:                                   98.805
 CELL_TOP| Angle (a,b), gamma [degree]:                                   98.807
 CELL_TOP| Numerically orthorhombic:                                          NO

 GENERATE|  Preliminary Number of Bonds generated:                             0
 GENERATE|  Achieved consistency in connectivity generation.

 CELL| Volume [angstrom^3]:                                             1375.527
 CELL| Vector a [angstrom]:       6.999     0.000     0.000    |a| =       6.999
 CELL| Vector b [angstrom]:      -2.334    15.064     0.000    |b| =      15.244
 CELL| Vector c [angstrom]:      -2.333    -7.532    13.046    |c| =      15.244
 CELL| Angle (b,c), alpha [degree]:                                      117.699
 CELL| Angle (a,c), beta  [degree]:                                       98.805
 CELL| Angle (a,b), gamma [degree]:                                       98.807
 CELL| Numerically orthorhombic:                                              NO

 CELL_REF| Volume [angstrom^3]:                                         1375.527
 CELL_REF| Vector a [angstrom     6.999     0.000     0.000    |a| =       6.999
 CELL_REF| Vector b [angstrom    -2.334    15.064     0.000    |b| =      15.244
 CELL_REF| Vector c [angstrom    -2.333    -7.532    13.046    |c| =      15.244
 CELL_REF| Angle (b,c), alpha [degree]:                                  117.699
 CELL_REF| Angle (a,c), beta  [degree]:                                   98.805
 CELL_REF| Angle (a,b), gamma [degree]:                                   98.807
 CELL_REF| Numerically orthorhombic:                                          NO

 *******************************************************************************
 *******************************************************************************
 **                                                                           **
 **     #####                         ##              ##                      **
 **    ##   ##            ##          ##              ##                      **
 **   ##     ##                       ##            ######                    **
 **   ##     ##  ##   ##  ##   #####  ##  ##   ####   ##    #####    #####    **
 **   ##     ##  ##   ##  ##  ##      ## ##   ##      ##   ##   ##  ##   ##   **
 **   ##  ## ##  ##   ##  ##  ##      ####     ###    ##   ######   ######    **
 **    ##  ###   ##   ##  ##  ##      ## ##      ##   ##   ##       ##        **
 **     #######   #####   ##   #####  ##  ##  ####    ##    #####   ##        **
 **           ##                                                    ##        **
 **                                                                           **
 **                                                ... make the atoms dance   **
 **                                                                           **
 **            Copyright (C) by CP2K developers group (2000 - 2019)           **
 **                                                                           **
 *******************************************************************************

 DFT| Spin restricted Kohn-Sham (RKS) calculation                            RKS
 DFT| Multiplicity                                                             1
 DFT| Number of spin states                                                    1
 DFT| Charge                                                                   0
 DFT| Self-interaction correction (SIC)                                       NO
 DFT| Cutoffs: density                                              1.000000E-10
 DFT|          gradient                                             1.000000E-10
 DFT|          tau                                                  1.000000E-10
 DFT|          cutoff_smoothing_range                               0.000000E+00
 DFT| XC density smoothing                                                  NONE
 DFT| XC derivatives                                                          PW
 FUNCTIONAL| ROUTINE=NEW
 FUNCTIONAL| PBE:
 FUNCTIONAL| J.P.Perdew, K.Burke, M.Ernzerhof, Phys. Rev. Letter, vol. 77, n 18,
 FUNCTIONAL|  pp. 3865-3868, (1996){spin unpolarized}                           
 vdW POTENTIAL|                                                   Pair Potential
 vdW POTENTIAL|          DFT-D3 (Version 3.1)
 vdW POTENTIAL|          Potential Form: S. Grimme et al, JCP 132: 154104 (2010)
 vdW POTENTIAL|          BJ Damping: S. Grimme et al, JCC 32: 1456 (2011)
 vdW POTENTIAL|          Cutoff Radius [Bohr]:                             20.00
 vdW POTENTIAL|          s6 Scaling Factor:                               1.0000
 vdW POTENTIAL|          a1 Damping Factor:                               0.4289
 vdW POTENTIAL|          s8 Scaling Factor:                               0.7875
 vdW POTENTIAL|          a2 Damping Factor:                               4.4407
 vdW POTENTIAL|          Cutoff for CN calculation:                   0.1000E-05

 QS| Method:                                                                 GPW
 QS| Density plane wave grid type                        NON-SPHERICAL FULLSPACE
 QS| Number of grid levels:                                                    4
 QS| Density cutoff [a.u.]:                                                150.0
 QS| Multi grid cutoff [a.u.]: 1) grid level                               150.0
 QS|                           2) grid level                                50.0
 QS|                           3) grid level                                16.7
 QS|                           4) grid level                                 5.6
 QS| Grid level progression factor:                                          3.0
 QS| Relative density cutoff [a.u.]:                                        15.0
 QS| Consistent realspace mapping and integration 
 QS| Interaction thresholds: eps_pgf_orb:                                1.0E-05
 QS|                         eps_filter_matrix:                          0.0E+00
 QS|                         eps_core_charge:                            1.0E-12
 QS|                         eps_rho_gspace:                             1.0E-10
 QS|                         eps_rho_rspace:                             1.0E-10
 QS|                         eps_gvg_rspace:                             1.0E-05
 QS|                         eps_ppl:                                    1.0E-02
 QS|                         eps_ppnl:                                   1.0E-07


 ATOMIC KIND INFORMATION

  1. Atomic kind: C                                     Number of atoms:      25

     Orbital Basis Set                                     DZVP-MOLOPT-SR-GTH-q4

       Number of orbital shell sets:                                           1
       Number of orbital shells:                                               5
       Number of primitive Cartesian functions:                                5
       Number of Cartesian basis functions:                                   14
       Number of spherical basis functions:                                   13
       Norm type:                                                              2

       Normalised Cartesian orbitals:

                        Set   Shell   Orbital            Exponent    Coefficient

                          1       1    2s                5.605331       0.322515
                                                         2.113016       0.213043
                                                         0.769911      -0.209686
                                                         0.348157      -0.219794
                                                         0.128212      -0.022789

                          1       2    3s                5.605331       0.552234
                                                         2.113016       0.082072
                                                         0.769911       0.007843
                                                         0.348157       0.136893
                                                         0.128212       0.074283

                          1       3    3px               5.605331      -0.703879
                                                         2.113016      -0.642521
                                                         0.769911      -0.374851
                                                         0.348157      -0.139743
                                                         0.128212      -0.027849
                          1       3    3py               5.605331      -0.703879
                                                         2.113016      -0.642521
                                                         0.769911      -0.374851
                                                         0.348157      -0.139743
                                                         0.128212      -0.027849
                          1       3    3pz               5.605331      -0.703879
                                                         2.113016      -0.642521
                                                         0.769911      -0.374851
                                                         0.348157      -0.139743
                                                         0.128212      -0.027849

                          1       4    4px               5.605331      -0.480376
                                                         2.113016      -0.552894
                                                         0.769911      -0.316145
                                                         0.348157       0.210505
                                                         0.128212       0.076095
                          1       4    4py               5.605331      -0.480376
                                                         2.113016      -0.552894
                                                         0.769911      -0.316145
                                                         0.348157       0.210505
                                                         0.128212       0.076095
                          1       4    4pz               5.605331      -0.480376
                                                         2.113016      -0.552894
                                                         0.769911      -0.316145
                                                         0.348157       0.210505
                                                         0.128212       0.076095

                          1       5    4dx2              5.605331       0.640026
                                                         2.113016       0.274300
                                                         0.769911       0.446711
                                                         0.348157       0.028674
                                                         0.128212       0.029790
                          1       5    4dxy              5.605331       1.108557
                                                         2.113016       0.475102
                                                         0.769911       0.773726
                                                         0.348157       0.049666
                                                         0.128212       0.051599
                          1       5    4dxz              5.605331       1.108557
                                                         2.113016       0.475102
                                                         0.769911       0.773726
                                                         0.348157       0.049666
                                                         0.128212       0.051599
                          1       5    4dy2              5.605331       0.640026
                                                         2.113016       0.274300
                                                         0.769911       0.446711
                                                         0.348157       0.028674
                                                         0.128212       0.029790
                          1       5    4dyz              5.605331       1.108557
                                                         2.113016       0.475102
                                                         0.769911       0.773726
                                                         0.348157       0.049666
                                                         0.128212       0.051599
                          1       5    4dz2              5.605331       0.640026
                                                         2.113016       0.274300
                                                         0.769911       0.446711
                                                         0.348157       0.028674
                                                         0.128212       0.029790

     GTH Potential information for                                    GTH-PBE-q4

       Description:                       Goedecker-Teter-Hutter pseudopotential
                                           Goedecker et al., PRB 54, 1703 (1996)
                                          Hartwigsen et al., PRB 58, 3641 (1998)
                                                      Krack, TCA 114, 145 (2005)

       Gaussian exponent of the core charge distribution:               4.364419
       Electronic configuration (s p d ...):                               2   2

       Parameters of the local part of the GTH pseudopotential:

                          rloc        C1          C2          C3          C4
                        0.338471   -8.803674    1.339211

       Parameters of the non-local part of the GTH pseudopotential:

                   l      r(l)      h(i,j,l)

                   0    0.302576    9.622487
                   1    0.291507

  2. Atomic kind: H                                     Number of atoms:       6

     Orbital Basis Set                                     DZVP-MOLOPT-SR-GTH-q1

       Number of orbital shell sets:                                           1
       Number of orbital shells:                                               3
       Number of primitive Cartesian functions:                                5
       Number of Cartesian basis functions:                                    5
       Number of spherical basis functions:                                    5
       Norm type:                                                              2

       Normalised Cartesian orbitals:

                        Set   Shell   Orbital            Exponent    Coefficient

                          1       1    2s               10.068468      -0.133023
                                                         2.680223      -0.177618
                                                         0.791502      -0.258419
                                                         0.239116      -0.107525
                                                         0.082193      -0.014019

                          1       2    3s               10.068468       0.344673
                                                         2.680223       1.819821
                                                         0.791502      -0.999069
                                                         0.239116       0.017430
                                                         0.082193       0.082660

                          1       3    3px              10.068468       0.155326
                                                         2.680223       0.367157
                                                         0.791502       0.311480
                                                         0.239116       0.080105
                                                         0.082193       0.033440
                          1       3    3py              10.068468       0.155326
                                                         2.680223       0.367157
                                                         0.791502       0.311480
                                                         0.239116       0.080105
                                                         0.082193       0.033440
                          1       3    3pz              10.068468       0.155326
                                                         2.680223       0.367157
                                                         0.791502       0.311480
                                                         0.239116       0.080105
                                                         0.082193       0.033440

     GTH Potential information for                                    GTH-PBE-q1

       Description:                       Goedecker-Teter-Hutter pseudopotential
                                           Goedecker et al., PRB 54, 1703 (1996)
                                          Hartwigsen et al., PRB 58, 3641 (1998)
                                                      Krack, TCA 114, 145 (2005)

       Gaussian exponent of the core charge distribution:              12.500000
       Electronic configuration (s p d ...):                                   1

       Parameters of the local part of the GTH pseudopotential:

                          rloc        C1          C2          C3          C4
                        0.200000   -4.178900    0.724463

  3. Atomic kind: O                                     Number of atoms:      20

     Orbital Basis Set                                     DZVP-MOLOPT-SR-GTH-q6

       Number of orbital shell sets:                                           1
       Number of orbital shells:                                               5
       Number of primitive Cartesian functions:                                5
       Number of Cartesian basis functions:                                   14
       Number of spherical basis functions:                                   13
       Norm type:                                                              2

       Normalised Cartesian orbitals:

                        Set   Shell   Orbital            Exponent    Coefficient

                          1       1    2s               10.389228       0.396646
                                                         3.849621       0.208811
                                                         1.388401      -0.301641
                                                         0.496955      -0.274061
                                                         0.162492      -0.033677

                          1       2    3s               10.389228       0.303673
                                                         3.849621       0.240943
                                                         1.388401      -0.313066
                                                         0.496955      -0.043055
                                                         0.162492       0.213991

                          1       3    3px              10.389228      -1.530415
                                                         3.849621      -1.371928
                                                         1.388401      -0.761951
                                                         0.496955      -0.253695
                                                         0.162492      -0.035541
                          1       3    3py              10.389228      -1.530415
                                                         3.849621      -1.371928
                                                         1.388401      -0.761951
                                                         0.496955      -0.253695
                                                         0.162492      -0.035541
                          1       3    3pz              10.389228      -1.530415
                                                         3.849621      -1.371928
                                                         1.388401      -0.761951
                                                         0.496955      -0.253695
                                                         0.162492      -0.035541

                          1       4    4px              10.389228      -0.565392
                                                         3.849621      -0.038231
                                                         1.388401      -0.382373
                                                         0.496955       0.179070
                                                         0.162492       0.122714
                          1       4    4py              10.389228      -0.565392
                                                         3.849621      -0.038231
                                                         1.388401      -0.382373
                                                         0.496955       0.179070
                                                         0.162492       0.122714
                          1       4    4pz              10.389228      -0.565392
                                                         3.849621      -0.038231
                                                         1.388401      -0.382373
                                                         0.496955       0.179070
                                                         0.162492       0.122714

                          1       5    4dx2             10.389228       1.867377
                                                         3.849621       0.670994
                                                         1.388401       1.353441
                                                         0.496955       0.273538
                                                         0.162492       0.006620
                          1       5    4dxy             10.389228       3.234392
                                                         3.849621       1.162195
                                                         1.388401       2.344229
                                                         0.496955       0.473781
                                                         0.162492       0.011466
                          1       5    4dxz             10.389228       3.234392
                                                         3.849621       1.162195
                                                         1.388401       2.344229
                                                         0.496955       0.473781
                                                         0.162492       0.011466
                          1       5    4dy2             10.389228       1.867377
                                                         3.849621       0.670994
                                                         1.388401       1.353441
                                                         0.496955       0.273538
                                                         0.162492       0.006620
                          1       5    4dyz             10.389228       3.234392
                                                         3.849621       1.162195
                                                         1.388401       2.344229
                                                         0.496955       0.473781
                                                         0.162492       0.011466
                          1       5    4dz2             10.389228       1.867377
                                                         3.849621       0.670994
                                                         1.388401       1.353441
                                                         0.496955       0.273538
                                                         0.162492       0.006620

     GTH Potential information for                                    GTH-PBE-q6

       Description:                       Goedecker-Teter-Hutter pseudopotential
                                           Goedecker et al., PRB 54, 1703 (1996)
                                          Hartwigsen et al., PRB 58, 3641 (1998)
                                                      Krack, TCA 114, 145 (2005)

       Gaussian exponent of the core charge distribution:               8.360253
       Electronic configuration (s p d ...):                               2   4

       Parameters of the local part of the GTH pseudopotential:

                          rloc        C1          C2          C3          C4
                        0.244554  -16.667215    2.487311

       Parameters of the non-local part of the GTH pseudopotential:

                   l      r(l)      h(i,j,l)

                   0    0.220956   18.337458
                   1    0.211332

  4. Atomic kind: Zn                                    Number of atoms:       6

     Orbital Basis Set                                    DZVP-MOLOPT-SR-GTH-q12

       Number of orbital shell sets:                                           1
       Number of orbital shells:                                               7
       Number of primitive Cartesian functions:                                6
       Number of Cartesian basis functions:                                   30
       Number of spherical basis functions:                                   25
       Norm type:                                                              2

       Normalised Cartesian orbitals:

                        Set   Shell   Orbital            Exponent    Coefficient

                          1       1    2s                6.400813       0.070678
                                                         3.167793      -0.182901
                                                         1.341704       0.275787
                                                         0.545418       0.070077
                                                         0.222222      -0.163015
                                                         0.079830      -0.058340

                          1       2    3s                6.400813       0.159300
                                                         3.167793      -0.240359
                                                         1.341704      -0.028572
                                                         0.545418      -0.590243
                                                         0.222222       0.705234
                                                         0.079830      -0.232595

                          1       3    3px               6.400813       0.044197
                                                         3.167793      -0.065115
                                                         1.341704       0.233173
                                                         0.545418      -0.041743
                                                         0.222222      -0.119659
                                                         0.079830      -0.031199
                          1       3    3py               6.400813       0.044197
                                                         3.167793      -0.065115
                                                         1.341704       0.233173
                                                         0.545418      -0.041743
                                                         0.222222      -0.119659
                                                         0.079830      -0.031199
                          1       3    3pz               6.400813       0.044197
                                                         3.167793      -0.065115
                                                         1.341704       0.233173
                                                         0.545418      -0.041743
                                                         0.222222      -0.119659
                                                         0.079830      -0.031199

                          1       4    4px               6.400813       0.240176
                                                         3.167793      -0.408028
                                                         1.341704      -0.147214
                                                         0.545418      -0.102288
                                                         0.222222       0.357755
                                                         0.079830      -0.080257
                          1       4    4py               6.400813       0.240176
                                                         3.167793      -0.408028
                                                         1.341704      -0.147214
                                                         0.545418      -0.102288
                                                         0.222222       0.357755
                                                         0.079830      -0.080257
                          1       4    4pz               6.400813       0.240176
                                                         3.167793      -0.408028
                                                         1.341704      -0.147214
                                                         0.545418      -0.102288
                                                         0.222222       0.357755
                                                         0.079830      -0.080257

                          1       5    4dx2              6.400813      12.052935
                                                         3.167793       4.421864
                                                         1.341704       0.893324
                                                         0.545418       0.127232
                                                         0.222222       0.011466
                                                         0.079830       0.000178
                          1       5    4dxy              6.400813      20.876296
                                                         3.167793       7.658893
                                                         1.341704       1.547283
                                                         0.545418       0.220373
                                                         0.222222       0.019859
                                                         0.079830       0.000308
                          1       5    4dxz              6.400813      20.876296
                                                         3.167793       7.658893
                                                         1.341704       1.547283
                                                         0.545418       0.220373
                                                         0.222222       0.019859
                                                         0.079830       0.000308
                          1       5    4dy2              6.400813      12.052935
                                                         3.167793       4.421864
                                                         1.341704       0.893324
                                                         0.545418       0.127232
                                                         0.222222       0.011466
                                                         0.079830       0.000178
                          1       5    4dyz              6.400813      20.876296
                                                         3.167793       7.658893
                                                         1.341704       1.547283
                                                         0.545418       0.220373
                                                         0.222222       0.019859
                                                         0.079830       0.000308
                          1       5    4dz2              6.400813      12.052935
                                                         3.167793       4.421864
                                                         1.341704       0.893324
                                                         0.545418       0.127232
                                                         0.222222       0.011466
                                                         0.079830       0.000178

                          1       6    5dx2              6.400813      -3.077244
                                                         3.167793      -1.397438
                                                         1.341704      -0.501565
                                                         0.545418       0.120936
                                                         0.222222       0.032489
                                                         0.079830       0.013923
                          1       6    5dxy              6.400813      -5.329943
                                                         3.167793      -2.420434
                                                         1.341704      -0.868735
                                                         0.545418       0.209468
                                                         0.222222       0.056272
                                                         0.079830       0.024116
                          1       6    5dxz              6.400813      -5.329943
                                                         3.167793      -2.420434
                                                         1.341704      -0.868735
                                                         0.545418       0.209468
                                                         0.222222       0.056272
                                                         0.079830       0.024116
                          1       6    5dy2              6.400813      -3.077244
                                                         3.167793      -1.397438
                                                         1.341704      -0.501565
                                                         0.545418       0.120936
                                                         0.222222       0.032489
                                                         0.079830       0.013923
                          1       6    5dyz              6.400813      -5.329943
                                                         3.167793      -2.420434
                                                         1.341704      -0.868735
                                                         0.545418       0.209468
                                                         0.222222       0.056272
                                                         0.079830       0.024116
                          1       6    5dz2              6.400813      -3.077244
                                                         3.167793      -1.397438
                                                         1.341704      -0.501565
                                                         0.545418       0.120936
                                                         0.222222       0.032489
                                                         0.079830       0.013923

                          1       7    5fx3              6.400813      -0.041001
                                                         3.167793       0.016340
                                                         1.341704       0.068339
                                                         0.545418       0.147998
                                                         0.222222       0.008656
                                                         0.079830       0.003475
                          1       7    5fx2y             6.400813      -0.091680
                                                         3.167793       0.036538
                                                         1.341704       0.152810
                                                         0.545418       0.330933
                                                         0.222222       0.019354
                                                         0.079830       0.007771
                          1       7    5fx2z             6.400813      -0.091680
                                                         3.167793       0.036538
                                                         1.341704       0.152810
                                                         0.545418       0.330933
                                                         0.222222       0.019354
                                                         0.079830       0.007771
                          1       7    5fxy2             6.400813      -0.091680
                                                         3.167793       0.036538
                                                         1.341704       0.152810
                                                         0.545418       0.330933
                                                         0.222222       0.019354
                                                         0.079830       0.007771
                          1       7    5fxyz             6.400813      -0.158795
                                                         3.167793       0.063286
                                                         1.341704       0.264674
                                                         0.545418       0.573193
                                                         0.222222       0.033523
                                                         0.079830       0.013460
                          1       7    5fxz2             6.400813      -0.091680
                                                         3.167793       0.036538
                                                         1.341704       0.152810
                                                         0.545418       0.330933
                                                         0.222222       0.019354
                                                         0.079830       0.007771
                          1       7    5fy3              6.400813      -0.041001
                                                         3.167793       0.016340
                                                         1.341704       0.068339
                                                         0.545418       0.147998
                                                         0.222222       0.008656
                                                         0.079830       0.003475
                          1       7    5fy2z             6.400813      -0.091680
                                                         3.167793       0.036538
                                                         1.341704       0.152810
                                                         0.545418       0.330933
                                                         0.222222       0.019354
                                                         0.079830       0.007771
                          1       7    5fyz2             6.400813      -0.091680
                                                         3.167793       0.036538
                                                         1.341704       0.152810
                                                         0.545418       0.330933
                                                         0.222222       0.019354
                                                         0.079830       0.007771
                          1       7    5fz3              6.400813      -0.041001
                                                         3.167793       0.016340
                                                         1.341704       0.068339
                                                         0.545418       0.147998
                                                         0.222222       0.008656
                                                         0.079830       0.003475

     GTH Potential information for                                   GTH-PBE-q12

       Description:                       Goedecker-Teter-Hutter pseudopotential
                                           Goedecker et al., PRB 54, 1703 (1996)
                                          Hartwigsen et al., PRB 58, 3641 (1998)
                                                      Krack, TCA 114, 145 (2005)

       Gaussian exponent of the core charge distribution:               1.922338
       Electronic configuration (s p d ...):                           2   0  10

       Parameters of the local part of the GTH pseudopotential:

                          rloc        C1          C2          C3          C4
                        0.510000

       Parameters of the non-local part of the GTH pseudopotential:

                   l      r(l)      h(i,j,l)

                   0    0.400316   11.530041   -8.791898    3.145086
                                   -8.791898   16.465775   -8.120578
                                    3.145086   -8.120578    6.445509
                   1    0.543182    2.597195   -0.594263
                                   -0.594263    0.703141
                   2    0.250959  -14.466958


 MOLECULE KIND INFORMATION


 All atoms are their own molecule, skipping detailed information


 TOTAL NUMBERS AND MAXIMUM NUMBERS

  Total number of            - Atomic kinds:                                   4
                             - Atoms:                                         57
                             - Shell sets:                                    57
                             - Shells:                                       285
                             - Primitive Cartesian functions:                291
                             - Cartesian basis functions:                    840
                             - Spherical basis functions:                    765

  Maximum angular momentum of- Orbital basis functions:                        3
                             - Local part of the GTH pseudopotential:          2
                             - Non-local part of the GTH pseudopotential:      4


 MODULE QUICKSTEP:  ATOMIC COORDINATES IN angstrom

  Atom  Kind  Element       X           Y           Z          Z(eff)       Mass

       1     1 C    6    0.646324   -2.012143    7.954853      4.00      12.0107
       2     1 C    6   -0.317199   -2.880077    7.219172      4.00      12.0107
       3     1 C    6    5.319234   -2.515377    7.000516      4.00      12.0107
       4     1 C    6    4.512022   -3.420519    6.302930      4.00      12.0107
       5     1 C    6    2.978991    1.649870    7.326151      4.00      12.0107
       6     1 C    6    2.015509    2.721076    6.942068      4.00      12.0107
       7     1 C    6    0.652869    2.727937    7.367508      4.00      12.0107
       8     1 C    6   -0.154461    3.784682    6.932283      4.00      12.0107
       9     1 C    6   -1.687101    0.363295   10.812123      4.00      12.0107
      10     1 C    6   -2.650664    0.160324   11.931627      4.00      12.0107
      11     1 C    6    2.985722   -0.211463   11.724973      4.00      12.0107
      12     1 C    6    2.178442   -0.362915   12.857784      4.00      12.0107
      13     1 C    6    1.685603    9.545114    5.091581      4.00      12.0107
      14     1 C    6    2.649056   10.413047    5.827262      4.00      12.0107
      15     1 C    6   -2.987377   10.048347    6.045918      4.00      12.0107
      16     1 C    6   -2.180142   10.953338    6.743503      4.00      12.0107
      17     1 C    6   -0.647134    5.883100    5.720543      4.00      12.0107
      18     1 C    6    0.316371    4.811743    6.104626      4.00      12.0107
      19     1 C    6    1.679035    4.804957    5.679316      4.00      12.0107
      20     1 C    6    2.486295    3.748213    6.114541      4.00      12.0107
      21     1 C    6    4.018981    7.169298    2.234701      4.00      12.0107
      22     1 C    6    4.982498    7.372345    1.115067      4.00      12.0107
      23     1 C    6   -0.653888    7.744132    1.321460      4.00      12.0107
      24     1 C    6    0.153438    7.895509    0.188780      4.00      12.0107
      25     2 H    1    3.470307   -3.157878    6.123282      1.00       1.0079
      26     2 H    1   -1.196215    3.808865    7.249700      1.00       1.0079
      27     2 H    1    1.136690   -0.649814   12.720145      1.00       1.0079
      28     2 H    1   -1.138427   10.690698    6.923151      1.00       1.0079
      29     2 H    1    3.528095    3.723955    5.796994      1.00       1.0079
      30     2 H    1    1.195144    8.182483    0.326549      1.00       1.0079
      31     3 O    8    0.191054   -0.914259    8.443045      6.00      15.9994
      32     3 O    8    1.864634   -2.370141    8.072922      6.00      15.9994
      33     3 O    8    4.757113   -1.347822    7.418650      6.00      15.9994
      34     3 O    8    2.524004    0.678016    8.032869      6.00      15.9994
      35     3 O    8    4.197490    1.726766    6.957071      6.00      15.9994
      36     3 O    8    0.090859    1.782071    8.169595      6.00      15.9994
      37     3 O    8   -2.142095    0.236963    9.616952      6.00      15.9994
      38     3 O    8   -0.468700    0.644547   11.063134      6.00      15.9994
      39     3 O    8    2.423837   -0.433227   10.504622      6.00      15.9994
      40     3 O    8    2.140803    8.447003    4.603518      6.00      15.9994
      41     3 O    8    0.467223    9.902886    4.973642      6.00      15.9994
      42     3 O    8   -2.425256    8.880567    5.627914      6.00      15.9994
      43     3 O    8   -0.192101    6.854652    5.013825      6.00      15.9994
      44     3 O    8   -1.865633    5.806204    6.089623      6.00      15.9994
      45     3 O    8    2.240997    5.750899    4.877099      6.00      15.9994
      46     3 O    8    4.473952    7.295555    3.429482      6.00      15.9994
      47     3 O    8    2.800534    6.888122    1.983560      6.00      15.9994
      48     3 O    8   -0.091980    7.965746    2.541811      6.00      15.9994
      49     4 Zn  30   -1.389369    0.486697    7.744546     12.00      65.3800
      50     4 Zn  30    0.943538    0.582459    9.595425     12.00      65.3800
      51     4 Zn  30    3.276675   -1.068210    8.753025     12.00      65.3800
      52     4 Zn  30    3.721249    7.046123    5.302148     12.00      65.3800
      53     4 Zn  30    1.388366    6.950209    3.451269     12.00      65.3800
      54     4 Zn  30   -0.944818    8.600954    4.293538     12.00      65.3800
      55     1 C    6    0.990416    3.178969    2.978280      4.00      12.0107
      56     3 O    8    0.907012    4.332966    2.760185      6.00      15.9994
      57     3 O    8    1.069894    2.024189    3.184762      6.00      15.9994




 SCF PARAMETERS         Density guess:                                    ATOMIC
                        --------------------------------------------------------
                        max_scf:                                              50
                        max_scf_history:                                       0
                        max_diis:                                              4
                        --------------------------------------------------------
                        eps_scf:                                        1.00E-04
                        eps_scf_history:                                0.00E+00
                        eps_diis:                                       1.00E-01
                        eps_eigval:                                     1.00E-05
                        --------------------------------------------------------
                        level_shift [a.u.]:                                 0.00
                        --------------------------------------------------------
                        Outer loop SCF in use 
                        No variables optimised in outer loop
                        eps_scf                                         1.00E-04
                        max_scf                                                5
                        No outer loop optimization
                        step_size                                       5.00E-01

 PW_GRID| Information for grid number                                          1
 PW_GRID| Cutoff [a.u.]                                                    150.0
 PW_GRID| spherical cutoff:                                                   NO
 PW_GRID|   Bounds   1            -37      37                Points:          75
 PW_GRID|   Bounds   2            -80      79                Points:         160
 PW_GRID|   Bounds   3            -80      79                Points:         160
 PW_GRID| Volume element (a.u.^3)  0.4835E-02     Volume (a.u.^3)      9282.5169
 PW_GRID| Grid span                                                    FULLSPACE

 PW_GRID| Information for grid number                                          2
 PW_GRID| Number of the reference grid                                         1
 PW_GRID| Cutoff [a.u.]                                                     50.0
 PW_GRID| spherical cutoff:                                                   NO
 PW_GRID|   Bounds   1            -22      22                Points:          45
 PW_GRID|   Bounds   2            -48      47                Points:          96
 PW_GRID|   Bounds   3            -48      47                Points:          96
 PW_GRID| Volume element (a.u.^3)  0.2238E-01     Volume (a.u.^3)      9282.5169
 PW_GRID| Grid span                                                    FULLSPACE

 PW_GRID| Information for grid number                                          3
 PW_GRID| Number of the reference grid                                         1
 PW_GRID| Cutoff [a.u.]                                                     16.7
 PW_GRID| spherical cutoff:                                                   NO
 PW_GRID|   Bounds   1            -12      12                Points:          25
 PW_GRID|   Bounds   2            -27      26                Points:          54
 PW_GRID|   Bounds   3            -27      26                Points:          54
 PW_GRID| Volume element (a.u.^3)  0.1273         Volume (a.u.^3)      9282.5169
 PW_GRID| Grid span                                                    FULLSPACE

 PW_GRID| Information for grid number                                          4
 PW_GRID| Number of the reference grid                                         1
 PW_GRID| Cutoff [a.u.]                                                      5.6
 PW_GRID| spherical cutoff:                                                   NO
 PW_GRID|   Bounds   1             -7       7                Points:          15
 PW_GRID|   Bounds   2            -16      15                Points:          32
 PW_GRID|   Bounds   3            -16      15                Points:          32
 PW_GRID| Volume element (a.u.^3)  0.6043         Volume (a.u.^3)      9282.5169
 PW_GRID| Grid span                                                    FULLSPACE

 POISSON| Solver                                                        PERIODIC
 POISSON| Periodicity                                                        XYZ

 RS_GRID| Information for grid number                                          1
 RS_GRID|   Bounds   1            -37      37                Points:          75
 RS_GRID|   Bounds   2            -80      79                Points:         160
 RS_GRID|   Bounds   3            -80      79                Points:         160

 RS_GRID| Information for grid number                                          2
 RS_GRID|   Bounds   1            -22      22                Points:          45
 RS_GRID|   Bounds   2            -48      47                Points:          96
 RS_GRID|   Bounds   3            -48      47                Points:          96

 RS_GRID| Information for grid number                                          3
 RS_GRID|   Bounds   1            -12      12                Points:          25
 RS_GRID|   Bounds   2            -27      26                Points:          54
 RS_GRID|   Bounds   3            -27      26                Points:          54

 RS_GRID| Information for grid number                                          4
 RS_GRID|   Bounds   1             -7       7                Points:          15
 RS_GRID|   Bounds   2            -16      15                Points:          32
 RS_GRID|   Bounds   3            -16      15                Points:          32

 -------------------------------------------------------------------------------
 -                                                                             -
 -  BSSE CALCULATION         FRAGMENT CONF: 10        FRAGMENT SUBCONF: 10     -
 -                           CHARGE =     0           MULTIPLICITY =     1     -
 -                                                                             -
 -                 ATOM INDEX                              ATOM NAME           -
 -                 ----------                              ---------           -
 -                      1                                   C                  -
 -                      2                                   C                  -
 -                      3                                   C                  -
 -                      4                                   C                  -
 -                      5                                   C                  -
 -                      6                                   C                  -
 -                      7                                   C                  -
 -                      8                                   C                  -
 -                      9                                   C                  -
 -                     10                                   C                  -
 -                     11                                   C                  -
 -                     12                                   C                  -
 -                     13                                   C                  -
 -                     14                                   C                  -
 -                     15                                   C                  -
 -                     16                                   C                  -
 -                     17                                   C                  -
 -                     18                                   C                  -
 -                     19                                   C                  -
 -                     20                                   C                  -
 -                     21                                   C                  -
 -                     22                                   C                  -
 -                     23                                   C                  -
 -                     24                                   C                  -
 -                     25                                   H                  -
 -                     26                                   H                  -
 -                     27                                   H                  -
 -                     28                                   H                  -
 -                     29                                   H                  -
 -                     30                                   H                  -
 -                     31                                   O                  -
 -                     32                                   O                  -
 -                     33                                   O                  -
 -                     34                                   O                  -
 -                     35                                   O                  -
 -                     36                                   O                  -
 -                     37                                   O                  -
 -                     38                                   O                  -
 -                     39                                   O                  -
 -                     40                                   O                  -
 -                     41                                   O                  -
 -                     42                                   O                  -
 -                     43                                   O                  -
 -                     44                                   O                  -
 -                     45                                   O                  -
 -                     46                                   O                  -
 -                     47                                   O                  -
 -                     48                                   O                  -
 -                     49                                   Zn                 -
 -                     50                                   Zn                 -
 -                     51                                   Zn                 -
 -                     52                                   Zn                 -
 -                     53                                   Zn                 -
 -                     54                                   Zn                 -
 -------------------------------------------------------------------------------

 CELL| Volume [angstrom^3]:                                             1375.527
 CELL| Vector a [angstrom]:       6.999     0.000     0.000    |a| =       6.999
 CELL| Vector b [angstrom]:      -2.334    15.064     0.000    |b| =      15.244
 CELL| Vector c [angstrom]:      -2.333    -7.532    13.046    |c| =      15.244
 CELL| Angle (b,c), alpha [degree]:                                      117.699
 CELL| Angle (a,c), beta  [degree]:                                       98.805
 CELL| Angle (a,b), gamma [degree]:                                       98.807
 CELL| Numerically orthorhombic:                                              NO

 CELL_REF| Volume [angstrom^3]:                                         1375.527
 CELL_REF| Vector a [angstrom     6.999     0.000     0.000    |a| =       6.999
 CELL_REF| Vector b [angstrom    -2.334    15.064     0.000    |b| =      15.244
 CELL_REF| Vector c [angstrom    -2.333    -7.532    13.046    |c| =      15.244
 CELL_REF| Angle (b,c), alpha [degree]:                                  117.699
 CELL_REF| Angle (a,c), beta  [degree]:                                   98.805
 CELL_REF| Angle (a,b), gamma [degree]:                                   98.807
 CELL_REF| Numerically orthorhombic:                                          NO

 *******************************************************************************
 *******************************************************************************
 **                                                                           **
 **     #####                         ##              ##                      **
 **    ##   ##            ##          ##              ##                      **
 **   ##     ##                       ##            ######                    **
 **   ##     ##  ##   ##  ##   #####  ##  ##   ####   ##    #####    #####    **
 **   ##     ##  ##   ##  ##  ##      ## ##   ##      ##   ##   ##  ##   ##   **
 **   ##  ## ##  ##   ##  ##  ##      ####     ###    ##   ######   ######    **
 **    ##  ###   ##   ##  ##  ##      ## ##      ##   ##   ##       ##        **
 **     #######   #####   ##   #####  ##  ##  ####    ##    #####   ##        **
 **           ##                                                    ##        **
 **                                                                           **
 **                                                ... make the atoms dance   **
 **                                                                           **
 **            Copyright (C) by CP2K developers group (2000 - 2019)           **
 **                                                                           **
 *******************************************************************************

 DFT| Spin restricted Kohn-Sham (RKS) calculation                            RKS
 DFT| Multiplicity                                                             1
 DFT| Number of spin states                                                    1
 DFT| Charge                                                                   0
 DFT| Self-interaction correction (SIC)                                       NO
 DFT| Cutoffs: density                                              1.000000E-10
 DFT|          gradient                                             1.000000E-10
 DFT|          tau                                                  1.000000E-10
 DFT|          cutoff_smoothing_range                               0.000000E+00
 DFT| XC density smoothing                                                  NONE
 DFT| XC derivatives                                                          PW
 FUNCTIONAL| ROUTINE=NEW
 FUNCTIONAL| PBE:
 FUNCTIONAL| J.P.Perdew, K.Burke, M.Ernzerhof, Phys. Rev. Letter, vol. 77, n 18,
 FUNCTIONAL|  pp. 3865-3868, (1996){spin unpolarized}                           
 vdW POTENTIAL|                                                   Pair Potential
 vdW POTENTIAL|          DFT-D3 (Version 3.1)
 vdW POTENTIAL|          Potential Form: S. Grimme et al, JCP 132: 154104 (2010)
 vdW POTENTIAL|          BJ Damping: S. Grimme et al, JCC 32: 1456 (2011)
 vdW POTENTIAL|          Cutoff Radius [Bohr]:                             20.00
 vdW POTENTIAL|          s6 Scaling Factor:                               1.0000
 vdW POTENTIAL|          a1 Damping Factor:                               0.4289
 vdW POTENTIAL|          s8 Scaling Factor:                               0.7875
 vdW POTENTIAL|          a2 Damping Factor:                               4.4407
 vdW POTENTIAL|          Cutoff for CN calculation:                   0.1000E-05

 QS| Method:                                                                 GPW
 QS| Density plane wave grid type                        NON-SPHERICAL FULLSPACE
 QS| Number of grid levels:                                                    4
 QS| Density cutoff [a.u.]:                                                150.0
 QS| Multi grid cutoff [a.u.]: 1) grid level                               150.0
 QS|                           2) grid level                                50.0
 QS|                           3) grid level                                16.7
 QS|                           4) grid level                                 5.6
 QS| Grid level progression factor:                                          3.0
 QS| Relative density cutoff [a.u.]:                                        15.0
 QS| Consistent realspace mapping and integration 
 QS| Interaction thresholds: eps_pgf_orb:                                1.0E-05
 QS|                         eps_filter_matrix:                          0.0E+00
 QS|                         eps_core_charge:                            1.0E-12
 QS|                         eps_rho_gspace:                             1.0E-10
 QS|                         eps_rho_rspace:                             1.0E-10
 QS|                         eps_gvg_rspace:                             1.0E-05
 QS|                         eps_ppl:                                    1.0E-02
 QS|                         eps_ppnl:                                   1.0E-07


 ATOMIC KIND INFORMATION

  1. Atomic kind: C                                     Number of atoms:      24

     Orbital Basis Set                                     DZVP-MOLOPT-SR-GTH-q4

       Number of orbital shell sets:                                           1
       Number of orbital shells:                                               5
       Number of primitive Cartesian functions:                                5
       Number of Cartesian basis functions:                                   14
       Number of spherical basis functions:                                   13
       Norm type:                                                              2

       Normalised Cartesian orbitals:

                        Set   Shell   Orbital            Exponent    Coefficient

                          1       1    2s                5.605331       0.322515
                                                         2.113016       0.213043
                                                         0.769911      -0.209686
                                                         0.348157      -0.219794
                                                         0.128212      -0.022789

                          1       2    3s                5.605331       0.552234
                                                         2.113016       0.082072
                                                         0.769911       0.007843
                                                         0.348157       0.136893
                                                         0.128212       0.074283

                          1       3    3px               5.605331      -0.703879
                                                         2.113016      -0.642521
                                                         0.769911      -0.374851
                                                         0.348157      -0.139743
                                                         0.128212      -0.027849
                          1       3    3py               5.605331      -0.703879
                                                         2.113016      -0.642521
                                                         0.769911      -0.374851
                                                         0.348157      -0.139743
                                                         0.128212      -0.027849
                          1       3    3pz               5.605331      -0.703879
                                                         2.113016      -0.642521
                                                         0.769911      -0.374851
                                                         0.348157      -0.139743
                                                         0.128212      -0.027849

                          1       4    4px               5.605331      -0.480376
                                                         2.113016      -0.552894
                                                         0.769911      -0.316145
                                                         0.348157       0.210505
                                                         0.128212       0.076095
                          1       4    4py               5.605331      -0.480376
                                                         2.113016      -0.552894
                                                         0.769911      -0.316145
                                                         0.348157       0.210505
                                                         0.128212       0.076095
                          1       4    4pz               5.605331      -0.480376
                                                         2.113016      -0.552894
                                                         0.769911      -0.316145
                                                         0.348157       0.210505
                                                         0.128212       0.076095

                          1       5    4dx2              5.605331       0.640026
                                                         2.113016       0.274300
                                                         0.769911       0.446711
                                                         0.348157       0.028674
                                                         0.128212       0.029790
                          1       5    4dxy              5.605331       1.108557
                                                         2.113016       0.475102
                                                         0.769911       0.773726
                                                         0.348157       0.049666
                                                         0.128212       0.051599
                          1       5    4dxz              5.605331       1.108557
                                                         2.113016       0.475102
                                                         0.769911       0.773726
                                                         0.348157       0.049666
                                                         0.128212       0.051599
                          1       5    4dy2              5.605331       0.640026
                                                         2.113016       0.274300
                                                         0.769911       0.446711
                                                         0.348157       0.028674
                                                         0.128212       0.029790
                          1       5    4dyz              5.605331       1.108557
                                                         2.113016       0.475102
                                                         0.769911       0.773726
                                                         0.348157       0.049666
                                                         0.128212       0.051599
                          1       5    4dz2              5.605331       0.640026
                                                         2.113016       0.274300
                                                         0.769911       0.446711
                                                         0.348157       0.028674
                                                         0.128212       0.029790

     GTH Potential information for                                    GTH-PBE-q4

       Description:                       Goedecker-Teter-Hutter pseudopotential
                                           Goedecker et al., PRB 54, 1703 (1996)
                                          Hartwigsen et al., PRB 58, 3641 (1998)
                                                      Krack, TCA 114, 145 (2005)

       Gaussian exponent of the core charge distribution:               4.364419
       Electronic configuration (s p d ...):                               2   2

       Parameters of the local part of the GTH pseudopotential:

                          rloc        C1          C2          C3          C4
                        0.338471   -8.803674    1.339211

       Parameters of the non-local part of the GTH pseudopotential:

                   l      r(l)      h(i,j,l)

                   0    0.302576    9.622487
                   1    0.291507

  2. Atomic kind: H                                     Number of atoms:       6

     Orbital Basis Set                                     DZVP-MOLOPT-SR-GTH-q1

       Number of orbital shell sets:                                           1
       Number of orbital shells:                                               3
       Number of primitive Cartesian functions:                                5
       Number of Cartesian basis functions:                                    5
       Number of spherical basis functions:                                    5
       Norm type:                                                              2

       Normalised Cartesian orbitals:

                        Set   Shell   Orbital            Exponent    Coefficient

                          1       1    2s               10.068468      -0.133023
                                                         2.680223      -0.177618
                                                         0.791502      -0.258419
[...]
 flops     9 x     9 x    39                25272     100.0%      0.0%      0.0%
 flops    26 x     1 x     9                31356     100.0%      0.0%      0.0%
 flops     9 x     1 x    39                47034     100.0%      0.0%      0.0%
 flops     5 x    21 x    21                79380     100.0%      0.0%      0.0%
 flops    13 x     8 x     8               101504     100.0%      0.0%      0.0%
 flops     8 x     8 x     8               104448     100.0%      0.0%      0.0%
 flops    32 x     1 x   141               198528     100.0%      0.0%      0.0%
 flops    32 x     1 x   149               200256     100.0%      0.0%      0.0%
 flops    26 x     8 x     8               203008     100.0%      0.0%      0.0%
 flops    13 x    13 x     8               210912     100.0%      0.0%      0.0%
 flops    13 x     8 x    39               210912     100.0%      0.0%      0.0%
 flops     8 x     8 x    39               264576     100.0%      0.0%      0.0%
 flops    25 x    21 x    21               396900     100.0%      0.0%      0.0%
 flops    26 x     8 x    39               421824     100.0%      0.0%      0.0%
 flops   109 x     1 x   141               676236     100.0%      0.0%      0.0%
 flops   117 x     1 x   149               732186     100.0%      0.0%      0.0%
 flops    13 x     8 x    13               900432     100.0%      0.0%      0.0%
 flops     5 x    32 x    32               983040     100.0%      0.0%      0.0%
 flops   320 x     1 x     1              1401600     100.0%      0.0%      0.0%
 flops    13 x    21 x    21              1547910     100.0%      0.0%      0.0%
 flops   307 x     1 x     1              1560788     100.0%      0.0%      0.0%
 flops   307 x     1 x   141              1904628     100.0%      0.0%      0.0%
 flops   445 x     1 x     1              1949100     100.0%      0.0%      0.0%
 flops   320 x     1 x   149              2002560     100.0%      0.0%      0.0%
 flops     5 x    13 x     5              2129400     100.0%      0.0%      0.0%
 flops   419 x     1 x     1              2130196     100.0%      0.0%      0.0%
 flops   419 x     1 x   141              2599476     100.0%      0.0%      0.0%
 flops   445 x     1 x   149              2784810     100.0%      0.0%      0.0%
 flops   109 x     1 x   726              3481896     100.0%      0.0%      0.0%
 flops    32 x     1 x   150              3513600     100.0%      0.0%      0.0%
 flops   117 x     1 x   765              3759210     100.0%      0.0%      0.0%
 flops    32 x     1 x   142              3853312     100.0%      0.0%      0.0%
 flops     5 x     5 x   141              4589550     100.0%      0.0%      0.0%
 flops    25 x    32 x    32              4915200     100.0%      0.0%      0.0%
 flops     5 x     1 x     5              5758200     100.0%      0.0%      0.0%
 flops     5 x    21 x     5              8391600     100.0%      0.0%      0.0%
 flops    25 x    13 x     5             10647000     100.0%      0.0%      0.0%
 flops     5 x    13 x    25             10647000     100.0%      0.0%      0.0%
 flops   118 x     1 x   150             12956400     100.0%      0.0%      0.0%
 flops   110 x     1 x   142             13245760     100.0%      0.0%      0.0%
 flops     5 x     5 x   149             14080500     100.0%      0.0%      0.0%
 flops    13 x    32 x    32             18849792     100.0%      0.0%      0.0%
 flops    32 x     1 x   765             18947520     100.0%      0.0%      0.0%
 flops    25 x     5 x   141             19669500     100.0%      0.0%      0.0%
 flops     5 x    25 x   141             19669500     100.0%      0.0%      0.0%
 flops    32 x     1 x   726             20722944     100.0%      0.0%      0.0%
 flops    25 x     1 x     5             28791000     100.0%      0.0%      0.0%
 flops     5 x     1 x    25             28791000     100.0%      0.0%      0.0%
 flops   320 x     1 x   150             35136000     100.0%      0.0%      0.0%
 flops   307 x     1 x   142             36967712     100.0%      0.0%      0.0%
 flops    13 x    13 x     5             38755080     100.0%      0.0%      0.0%
 flops     5 x    13 x    13             38765220     100.0%      0.0%      0.0%
 flops    25 x    21 x     5             41958000     100.0%      0.0%      0.0%
 flops     5 x    21 x    25             41958000     100.0%      0.0%      0.0%
 flops   445 x     1 x   150             48861000     100.0%      0.0%      0.0%
 flops   419 x     1 x   142             50454304     100.0%      0.0%      0.0%
 flops    25 x    13 x    25             53235000     100.0%      0.0%      0.0%
 flops    25 x     5 x   149             60345000     100.0%      0.0%      0.0%
 flops     5 x    25 x   149             60345000     100.0%      0.0%      0.0%
 flops   118 x     1 x   765             66077640     100.0%      0.0%      0.0%
 flops   110 x     1 x   726             67721280     100.0%      0.0%      0.0%
 flops     5 x    13 x   141             71596980     100.0%      0.0%      0.0%
 flops    13 x     5 x   141             71596980     100.0%      0.0%      0.0%
 flops     5 x    32 x     5             72115200     100.0%      0.0%      0.0%
 flops     5 x     1 x    13            108267120     100.0%      0.0%      0.0%
 flops    13 x     1 x     5            108267120     100.0%      0.0%      0.0%
 flops    25 x    25 x   141            114738750     100.0%      0.0%      0.0%
 flops    25 x     1 x    25            143955000     100.0%      0.0%      0.0%
 flops    32 x   142 x   726            145153536     100.0%      0.0%      0.0%
 flops    32 x   150 x   765            154224000     100.0%      0.0%      0.0%
 flops     5 x    21 x    13            163636200     100.0%      0.0%      0.0%
 flops    13 x    21 x     5            163636200     100.0%      0.0%      0.0%
 flops    13 x    13 x    25            193775400     100.0%      0.0%      0.0%
 flops    25 x    13 x    13            193826100     100.0%      0.0%      0.0%
 flops    25 x    21 x    25            209790000     100.0%      0.0%      0.0%
 flops     5 x    13 x   149            235345500     100.0%      0.0%      0.0%
 flops    13 x     5 x   149            235345500     100.0%      0.0%      0.0%
 flops    32 x   141 x   141            335909376     100.0%      0.0%      0.0%
 flops    25 x    25 x   149            352012500     100.0%      0.0%      0.0%
 flops    25 x    13 x   141            357984900     100.0%      0.0%      0.0%
 flops    13 x    25 x   141            357984900     100.0%      0.0%      0.0%
 flops    25 x    32 x     5            360576000     100.0%      0.0%      0.0%
 flops     5 x    32 x    25            360576000     100.0%      0.0%      0.0%
 flops   110 x   142 x   726            498965280     100.0%      0.0%      0.0%
 flops    25 x     1 x    13            541335600     100.0%      0.0%      0.0%
 flops    13 x     1 x    25            541335600     100.0%      0.0%      0.0%
 flops   118 x   150 x   765            568701000     100.0%      0.0%      0.0%
 flops    13 x    13 x    13            705527004     100.0%      0.0%      0.0%
 flops    25 x    21 x    13            818181000     100.0%      0.0%      0.0%
 flops    13 x    21 x    25            818181000     100.0%      0.0%      0.0%
 flops    32 x   141 x   726            936853632     100.0%      0.0%      0.0%
 flops    32 x   149 x   149           1086960960     100.0%      0.0%      0.0%
 flops   109 x   141 x   141           1144191312     100.0%      0.0%      0.0%
 flops    25 x    13 x   149           1176727500     100.0%      0.0%      0.0%
 flops    13 x    25 x   149           1176727500     100.0%      0.0%      0.0%
 flops    13 x    13 x   141           1334090394     100.0%      0.0%      0.0%
 flops     5 x    32 x    13           1378990080     100.0%      0.0%      0.0%
 flops    13 x    32 x     5           1378990080     100.0%      0.0%      0.0%
 flops    25 x    32 x    25           1802880000     100.0%      0.0%      0.0%
 flops   307 x   141 x   141           1831040100     100.0%      0.0%      0.0%
 flops    13 x     1 x    13           2038909626     100.0%      0.0%      0.0%
 flops   419 x   141 x   141           2499041700     100.0%      0.0%      0.0%
 flops    32 x   149 x   765           2713754880     100.0%      0.0%      0.0%
 flops    13 x    21 x    13           3190905900     100.0%      0.0%      0.0%
 flops   109 x   141 x   726           3191157684     100.0%      0.0%      0.0%
 flops   307 x   141 x   726           3896868888     100.0%      0.0%      0.0%
 flops   117 x   149 x   149           3974201010     100.0%      0.0%      0.0%
 flops    13 x    13 x   149           4691220300     100.0%      0.0%      0.0%
 flops   419 x   141 x   726           5318527896     100.0%      0.0%      0.0%
 flops   320 x   149 x   149           6180758400     100.0%      0.0%      0.0%
 flops    25 x    32 x    13           6894950400     100.0%      0.0%      0.0%
 flops    13 x    32 x    25           6894950400     100.0%      0.0%      0.0%
 flops   445 x   149 x   149           8595117150     100.0%      0.0%      0.0%
 flops   117 x   149 x   765           9922166280     100.0%      0.0%      0.0%
 flops   320 x   149 x   765          13131072000     100.0%      0.0%      0.0%
 flops   445 x   149 x   765          18260397000     100.0%      0.0%      0.0%
 flops    13 x    32 x    13          26394241536     100.0%      0.0%      0.0%
 flops inhomo. stacks                     4606050     100.0%      0.0%      0.0%
 flops total                       150.964560E+09     100.0%      0.0%      0.0%
 flops max/rank                    150.964560E+09     100.0%      0.0%      0.0%
 matmuls inhomo. stacks                     12092     100.0%      0.0%      0.0%
 matmuls total                           14986539     100.0%      0.0%      0.0%
 number of processed stacks                108321     100.0%      0.0%      0.0%
 average stack size                                   138.4       0.0       0.0
 marketing flops                   161.132020E+09
 -------------------------------------------------------------------------------
 # multiplications                          26653
 max memory usage/rank               0.000000E+00
 # max total images/rank                        1
 # max 3D layers                                1
 # MPI messages exchanged                       0
 MPI messages size (bytes):
  total size                         0.000000E+00
  min size                           0.000000E+00
  max size                           0.000000E+00
  average size                       0.000000E+00
 MPI breakdown and total messages size (bytes):
             size <=      128                   0                        0
       128 < size <=     8192                   0                        0
      8192 < size <=    32768                   0                        0
     32768 < size <=   131072                   0                        0
    131072 < size <=  4194304                   0                        0
   4194304 < size <= 16777216                   0                        0
  16777216 < size                               0                        0
 -------------------------------------------------------------------------------

 MEMORY| Estimated peak process memory [MiB]                                   0

 -------------------------------------------------------------------------------
 ----                             MULTIGRID INFO                            ----
 -------------------------------------------------------------------------------
 count for grid        1:          23492          cutoff [a.u.]          150.00
 count for grid        2:          11756          cutoff [a.u.]           50.00
 count for grid        3:           8036          cutoff [a.u.]           16.67
 count for grid        4:           2940          cutoff [a.u.]            5.56
 total gridlevel count  :          46224

 -------------------------------------------------------------------------------
 -                                                                             -
 -                           R E F E R E N C E S                               -
 -                                                                             -
 -------------------------------------------------------------------------------
 
 CP2K version 7.1, the CP2K developers group (2019).
 CP2K is freely available from https://www.cp2k.org/ .

 Schuett, Ole; Messmer, Peter; Hutter, Juerg; VandeVondele, Joost. 
 Electronic Structure Calculations on Graphics Processing Units, John
 Wiley & Sons, Ltd, 173-190 (2016). 
 GPU-Accelerated Sparse Matrix-Matrix Multiplication for
 Linear Scaling Density Functional Theory.
 https://dx.doi.org/10.1002/9781118670712.ch8

 Borstnik, U; VandeVondele, J; Weber, V; Hutter, J. 
 PARALLEL COMPUTING, 40 (5-6), 47-58 (2014). 
 Sparse matrix multiplication: The distributed block-compressed sparse
 row library.
 https://dx.doi.org/10.1016/j.parco.2014.03.012

 Hutter, J; Iannuzzi, M; Schiffmann, F; VandeVondele, J. 
 WIREs Comput Mol Sci., 4 (1), 15-25 (2014). 
 CP2K: atomistic simulations of condensed matter systems.
 https://dx.doi.org/10.1002/wcms.1159

 Grimme, S; Ehrlich, S; Goerigk, L. 
 JOURNAL OF COMPUTATIONAL CHEMISTRY, 32, 1456 (2011). 
 Effect of the damping function in dispersion corrected density functional theory.
 https://dx.doi.org/10.1002/jcc.21759

 Grimme, S; Antony, J; Ehrlich, S; Krieg, H. 
 JOURNAL OF CHEMICAL PHYSICS, 132 (15), 154104 (2010). 
 A consistent and accurate ab initio parametrization of density
 functional dispersion correction (DFT-D) for the 94 elements H-Pu.
 https://dx.doi.org/10.1063/1.3382344

 VandeVondele, J; Hutter, J. 
 JOURNAL OF CHEMICAL PHYSICS, 127 (11), 114105 (2007). 
 Gaussian basis sets for accurate calculations on molecular systems in
 gas and condensed phases.
 https://dx.doi.org/10.1063/1.2770708

 Krack, M. 
 THEORETICAL CHEMISTRY ACCOUNTS, 114 (1-3), 145-152 (2005). 
 Pseudopotentials for H to Kr optimized for gradient-corrected
 exchange-correlation functionals.
 https://dx.doi.org/10.1007/s00214-005-0655-y

 VandeVondele, J; Krack, M; Mohamed, F; Parrinello, M; Chassaing, T;
 Hutter, J. COMPUTER PHYSICS COMMUNICATIONS, 167 (2), 103-128 (2005). 
 QUICKSTEP: Fast and accurate density functional calculations using a
 mixed Gaussian and plane waves approach.
 https://dx.doi.org/10.1016/j.cpc.2004.12.014

 Frigo, M; Johnson, SG. 
 PROCEEDINGS OF THE IEEE, 93 (2), 216-231 (2005). 
 The design and implementation of FFTW3.
 https://dx.doi.org/10.1109/JPROC.2004.840301

 VandeVondele, J; Hutter, J. 
 JOURNAL OF CHEMICAL PHYSICS, 118 (10), 4365-4369 (2003). 
 An efficient orbital transformation method for electronic structure
 calculations.
 https://dx.doi.org/10.1063/1.1543154

 Hartwigsen, C; Goedecker, S; Hutter, J. 
 PHYSICAL REVIEW B, 58 (7), 3641-3662 (1998). 
 Relativistic separable dual-space Gaussian pseudopotentials from H to Rn.
 https://dx.doi.org/10.1103/PhysRevB.58.3641

 Lippert, G; Hutter, J; Parrinello, M. 
 MOLECULAR PHYSICS, 92 (3), 477-487 (1997). 
 A hybrid Gaussian and plane wave density functional scheme.
 https://dx.doi.org/10.1080/002689797170220

 Perdew, JP; Burke, K; Ernzerhof, M. 
 PHYSICAL REVIEW LETTERS, 77 (18), 3865-3868 (1996). 
 Generalized gradient approximation made simple.
 https://dx.doi.org/10.1103/PhysRevLett.77.3865

 Goedecker, S; Teter, M; Hutter, J. 
 PHYSICAL REVIEW B, 54 (3), 1703-1710 (1996). 
 Separable dual-space Gaussian pseudopotentials.
 https://dx.doi.org/10.1103/PhysRevB.54.1703


 -------------------------------------------------------------------------------
 -                                                                             -
 -                                T I M I N G                                  -
 -                                                                             -
 -------------------------------------------------------------------------------
 SUBROUTINE                       CALLS  ASD         SELF TIME        TOTAL TIME
                                MAXIMUM       AVERAGE  MAXIMUM  AVERAGE  MAXIMUM
 CP2K                                 1  1.0    0.735    0.735  818.255  818.255
 qs_energies                          5  2.0    0.000    0.000  805.224  805.224
 scf_env_do_scf                       5  3.0    0.001    0.001  737.519  737.519
 scf_env_do_scf_inner_loop          129  4.0    0.033    0.033  719.749  719.749
 qs_ks_update_qs_env                134  5.0    0.001    0.001  419.782  419.782
 rebuild_ks_matrix                  129  6.0    0.001    0.001  419.641  419.641
 qs_ks_build_kohn_sham_matrix       129  7.0    0.017    0.017  419.640  419.640
 qs_rho_update_rho                  134  5.0    0.001    0.001  305.047  305.047
 calculate_rho_elec                 134  6.0  272.322  272.322  305.046  305.046
 sum_up_and_integrate               129  8.0    0.442    0.442  247.537  247.537
 integrate_v_rspace                 129  9.0  232.684  232.684  247.095  247.095
 qs_vxc_create                      129  8.0    0.002    0.002  147.750  147.750
 xc_vxc_pw_create                   129  9.0    2.420    2.420  147.748  147.748
 pw_transfer                       2481  9.6    0.008    0.008  130.264  130.264
 fft_wrap_pw1pw2                   2223 10.7    0.041    0.041  129.308  129.308
 fft_wrap_pw1pw2_150               1434 11.8   11.053   11.053  123.740  123.740
 xc_rho_set_and_dset_create         129 10.0    0.874    0.874   97.345   97.345
 fft3d_s                           2225 12.7   83.505   83.505   83.511   83.511
 dbcsr_multiply_generic           26653  8.1    1.306    1.306   73.922   73.922
 xc_functional_eval                 129 11.0    0.001    0.001   60.285   60.285
 pbe_lda_eval                       129 12.0   60.284   60.284   60.284   60.284
 scf_post_calculation_gpw             5  3.0    0.000    0.000   52.615   52.615
 make_lumo                            5  4.0    0.000    0.000   52.288   52.288
 ot_eigensolver                       5  5.0    0.026    0.026   52.241   52.241
 make_m2s                         53306  9.1    0.839    0.839   42.276   42.276
 make_images                      53306 10.1    7.094    7.094   36.402   36.402
 density_rs2pw                      134  7.0    0.008    0.008   32.366   32.366
 ot_mini                           1838  6.1    0.009    0.009   22.297   22.297
 qs_scf_new_mos                     129  5.0    0.001    0.001   20.940   20.940
 qs_scf_loop_do_ot                  129  6.0    0.001    0.001   20.939   20.939
 make_images_data                 53306 11.1    0.592    0.592   20.854   20.854
 multiply_cannon                  26653  9.1    1.067    1.067   20.251   20.251
 hybrid_alltoall_any              54373 12.1   17.856   17.856   20.186   20.186
 ot_scf_mini                        129  7.0    0.003    0.003   19.432   19.432
 init_scf_loop                        5  4.0    0.000    0.000   17.758   17.758
 pw_scatter_s                      1166 13.2   17.296   17.296   17.296   17.296
 pw_gather_s                       1057 12.1   16.623   16.623   16.623   16.623
 -------------------------------------------------------------------------------

 The number of warnings for this run is : 0
 
 -------------------------------------------------------------------------------
  **** **** ******  **  PROGRAM ENDED AT                 2021-01-13 14:33:47.910
 ***** ** ***  *** **   PROGRAM RAN ON                             B126028.local
 **    ****   ******    PROGRAM RAN BY                                   leopold
 ***** **    ** ** **   PROGRAM PROCESS ID                                 37592
  **** **  *******  **  PROGRAM STOPPED IN /private/var/folders/8y/7c7qkxcx5vxb7
                                           49rt3sw5sh40000gp/T/tmp0a_g26ef/be/f5
                                           /033b-65a2-401b-b890-6551e6f1cf71
