Compiler and run-time data
===========================================================================
RASPA 2.0.37
Compiled as a 64-bits application
Compiler: gcc 9.3.0
Compile Date = Mar 18 2020, Compile Time = 13:46:53

Mon Nov 16 20:12:52 2020
Simulation started on Monday, November 16.
The start time was 08:12 PM.

Cpu data:    x86_64
Cpu Model:   MacBookPro11,4
Host name:   B126028.local
OS release:  19.6.0
OS type:     Darwin
OS version:  19H15


Simulation
===========================================================================
Dimensions: 3
Random number seed: 1605553972
RASPA directory set to: /Users/leopold/Personal/Programmierung/qm-codes/RASPA2/src/.libs
String appended to output-files: 
Number of cycles: 300
Number of initializing cycles: 300
Number of equilibration cycles: 0
Print every: 30
Rectangular boundary condition applied
Timestep: 0.000500
	Degrees of freedom:                        279
	Translational Degrees of freedom:          279
	Rotational Degrees of freedom:             0
	Degrees of freedom Framework:              0


Mutual consistent basic set of units:
======================================
Unit of temperature: Kelvin
Unit of length:      1e-10 [m]
Unit of time:        1e-12 [s]
Unit of mass:        1.66054e-27 [kg]
Unit of charge:      1.60218e-19 [C/particle]

Derived units and their conversion factors:
===========================================
Unit of energy:              1.66054e-23 [J]
Unit of force:               1.66054e-13 [N]
Unit of pressure:            1.66054e+07 [Pa]
Unit of velocity:            100 [m/s]
Unit of acceleration:        1e-08 [m^2/s]
Unit of diffusion:           1e-08 [m^2/s]
Unit of dipole moment:       1.60218e-29 [C.m]
Unit of electric potential:  0.000103643 [V]
Unit of electric field:      1.03643e+06 [V]
Unit of polarizability:      1.54587e-35 [-]
Unit of Coulomb potential:   167101.0800066561  [K]
Unit of dielectric constant: 0.0000154587       [s^2 C^2/(kg m^3)]
Unit of wave vectors:        5.3088374589       [cm^1]
Boltzmann constant:          0.8314464919       [-]

Internal conversion factors:
===========================================
Energy to Kelvin:                                    1.2027242847
FH correction factor                                 2.0211930949
Heat capacity conversion factor:                    10.0000088723
From Debye to internal units:                        4.8032067991
Isothermal compressibility conversion factor:        0.0000000602

Energy conversion factors:
===========================================
From mdyne/A to kcal/mol/A^2:           143.933
From mdyne/A to kj/mol/A^2:             602.214
From mdyne/A to K/A^2:                  72429.7
From mdyne A/rad^2 to kcal/mol/deg^2:   0.0438444


Properties computed
===========================================================================
Movies: no
Radial Distribution Function: no
Number of molecules GCMC histogram: no
Histogram of the molecule positions: no
Free energy profiles: no
Pore Size Distribution Function: no
End-to-end distance: no
Histogram of the energy of the system: no
Compute thermodynamic factors: no
Framework spacing histograms: no
Residence times histograms: no
Distance histograms: no
Bend Angle histograms: no
Dihedral angle histograms: no
Angle between planes histograms: no
Molecule properties: no
Infra-red spectra: no
Mean-squared displacement using modified order-N algorithm: no
Velocity-autocorrelation function modified order-N algorithm: no
Rotational velocity-autocorrelation function modified order-N algorithm: no
Molecular orientation-autocorrelation function modified order-N algorithm: no
Bond orientation-autocorrelation function modified order-N algorithm: no
Mean-squared displacement (conventional algorithm): no
Velocity-autocorrelation function (conventional algorithm): no
3D density grid for adsorbates: no
Compute cation an/or adsorption sites: no
dcTST snapshots: no
Compute pressure and stress: no


VTK
===========================================================================
VTK fractional-range position framework atoms: [-0.001000,1.001000] [-0.001000,1.001000] [-0.001000,1.001000]
VTK fractional-range position framework bonds: [-0.151000,1.151000] [-0.151000,1.151000] [-0.151000,1.151000]
VTK fractional-range com-position adsorbate molecules: [-0.101000,1.101000] [-0.101000,1.101000] [-0.101000,1.101000]
VTK fractional-range com-position cation molecules: [-0.101000,1.101000] [-0.101000,1.101000] [-0.101000,1.101000]
	3D free energy grid made for the full simulation-cell


Thermo/Baro-stat NHC parameters
===========================================================================
External temperature: 87 [K]
Beta: 0.0138244 [energy unit]
External Pressure: 1000 [Pa]


Thermostat chain-length: 3
Timescale parameter for thermostat: 0.150000 [ps]
Barostat chain-length:   3
Timescale parameter for barostat:   0.150000 [ps]

Number of Yoshida-Suzuki decomposition steps: 5
Number of respa steps: 5


Method and settings for electrostatics
===============================================================================
Dielectric constant of the medium : 1.000000
Charge from charge-equilibration: no
No electrostatics


CFC-RXMC parameters
===========================================================================
Number of reactions: 0


Rattle parameters
===========================================================================
Distance constraint type: r^2-r^2_0
Bend angle constraint type: theta-theta_0
Dihedral angle constraint type: phi-phi_0
Inversion-bend angle constraint type: chi-chi_0
Out-of-plane distance constraint type: r-r_0


Spectra parameters
===========================================================================
Compute normal modes: no


Minimization parameters
===========================================================================
Generalized coordinates are: Cartesian center-of-mass, elements of the orientational matrix p1,p2,p3 and strain
Potential derivatives are evaluated: analytically
Translation of the system is removed from the generalized Hessian: no
Rotation of the system is removed from the generalized Hessian: no
Maximum step-length: 0.3
Convergence factor: 1
Maximum number of minimization steps: 10000
Use gradients in the line-minimizations: yes
RMS gradient tolerance: 1e-06
Maximum gradient tolerance: 1e-06

Distance constraints: 0
Angle constraints: 0
Dihedral constraints: 0

Improper dihedral constraints: 0

Inversion-bend constraints: 0

Out-of-plane constraints: 0

Harmonic distance constraints: 0
Harmonic angle constraints: 0
Harmonic dihedral constraints: 0

Dihedral mid-point measurements: 0

All framework atoms are fixed

Fixed adsorbate atoms:  
Fixed adsorbate groups (center-of-mass):  
Fixed adsorbate groups (orientation):  

Fixed cation atoms:  
Fixed cation groups (center-of-mass):  
Fixed cation groups (orientation):  


dcTST parameters
===========================================================================
Free energy profiles computed: no
Free energy profiles written every 5000 cycles
Free energy mapping: mapped to a,b,c-coordinates
BarrierPosition:       0.0000000000       0.0000000000       0.0000000000
BarrierNormal:         0.0000000000       0.0000000000       0.0000000000
Start with a molecule on top of the barrier: no
Maximum distance to barrier (e.g. distance to minumum free energy):       0.0000000000 [A]
Maximum trajectory time:      10.0000000000 [ps]
Each configuration is used with 5 different initial velocities


Cbmc parameters
===========================================================================
Biasing method: using only the VDW part
Number of trial positions:                                       10
Number of trial positions (reinsertion):                         10
Number of trial positions (partial reinsertion):                 10
Number of trial positions (identity-change):                     10
Number of trial positions (Gibbs particle transfer):             10
Number of trial positions (insertion/deletion):                  10
Number of trial positions (Widom insertion):                     10
Number of trial positions coupled Torsion-selection:             100
Number of trial positions first bead:                            10
Number of trial positions first bead (reinsertion):              10
Number of trial positions first bead (partial reinsertion):      10
Number of trial positions first bead (identity-change):          10
Number of trial positions first bead (Gibbs particle transfer):  10
Number of trial positions first bead (insertion/deletion):       10
Number of trial positions first bead (Widom insertion):          10
Number of trial moves per open bead:                             150
Target acceptance ratio small-mc scheme:                         0.400000
Energy overlap criteria:                                         1e+07
Minimal Rosenbluth factor:                                       1e-150


Pseudo atoms: 3
===========================================================================
Pseudo Atom[   0] Name UNIT     Oxidation:          Element: H    pdb-name: H    Scat. Types:   1   1 Mass=1.000000000  B-factor:0.000   
                 Charge=1.000000000          Polarization=0.000000000  [A^3] (considered a charged atom and no polarization)  Interactions: yes
                 Anisotropic factor:    0.000 [-] (Absolute), Radius:    1.000 [A], Framework-atom:  no
Pseudo Atom[   1] Name Ar_gas   Oxidation: +0       Element: Ar   pdb-name: Ar   Scat. Types:  19  18 Mass=39.950000000 B-factor:1.000   
                 Charge=0.000000000          Polarization=0.000000000  [A^3] (considered a chargeless atom and no polarization)  Interactions: yes
                 Anisotropic factor:    0.000 [-] (Relative), Radius:    1.000 [A], Framework-atom:  no
Pseudo Atom[   2] Name C        Oxidation:          Element: C    pdb-name: C    Scat. Types:   7   6 Mass=12.010735897 B-factor:0.000   
                 Charge=0.000000000  (-na-)  Polarization=1.760000000  [A^3] (considered a chargeless atom and no polarization)  Interactions: yes
                 Anisotropic factor:    0.000 [-] (Absolute), Radius:    0.750 [A], Framework-atom: yes (charge definition not found)


Forcefield: Local
===========================================================================
Minimal distance: 1
CutOff VDW : 8.000000 (64.000000)
CutOff VDW switching on: 7.200000 (51.840000)
CutOff charge-charge : 12.000000 (144.000000)
CutOff charge-charge switching on: 7.800000 (60.840000)
CutOff charge-bonddipole : 12.000000 (144.000000)
CutOff charge-bondipole switching on: 8.400000 (70.560000)
CutOff bonddipole-bonddipole : 12.000000 (144.000000)
CutOff bonddipole-bondipole switching on: 9.000000 (81.000000)
Polarization is neglected
TailCorrections are used
All potentials are unshifted !!!!!!

General mixing rule: Lorentz-Berthelot mixing rules are used FIRST for cross terms
0 cross terms are overwritten using the individual mixing rules from the file 'force_field_mixing_rules.def'
and then 0 terms are overwritten using the specific interactions from the file 'force_field.def'

The force field and all the interactions:
 Ar_gas -  Ar_gas [LENNARD_JONES] p_0/k_B: 119.80000 [K], p_1: 3.40000 [A], shift/k_B:   0.00000000 [K], tailcorrection: yes
 Ar_gas -       C [LENNARD_JONES] p_0/k_B:  75.72159 [K], p_1: 3.43649 [A], shift/k_B:   0.00000000 [K], tailcorrection: yes
      C -       C [LENNARD_JONES] p_0/k_B:  47.86110 [K], p_1: 3.47299 [A], shift/k_B:   0.00000000 [K], tailcorrection: yes


MoleculeDefinitions:
===========================================================================
Component 0 [Ar] (Adsorbate molecule)

	MoleculeDefinitions: Local
	Component contains no atoms with charge
	Component contains no atoms with point dipoles (polarization)
	Component has a net charge of 0.000000

	Ideal chain Rosenbluth weight: 1
	Ideal chain total energy: 0.000000

	Critical temparure [K]: 150.860000
	Critical pressure [Pa]: 4898000.000000
	Acentric factor [-]: 0.000000

	RXMC partition factor ln(q/V) [ln(A^(-3))]:       0.0000000000

	Vapour=stable, Liquid=metastable

	MolFraction:           1.0000000000 [-]
	Compressibility:       0.9996938907 [-]

	Density of the bulk fluid phase:       0.0552454083 [kg/m^3]

	Binary mixture EOS parameters:  (0): 0.000000

	Amount of excess molecules:       0.0040959908 [-]

	Conversion factor molecules/unit cell -> mol/kg:      20.8147112840 [-]
	Conversion factor molecules/unit cell -> mg/g:     831.5477157974 [-]
	Conversion factor molecules/unit cell -> cm^3 STP/gr:     466.5404339136 [-]
	Conversion factor molecules/unit cell -> cm^3 STP/cm^3:     177.5796535584 [-]
	Conversion factor mol/kg -> cm^3 STP/gr:      22.4139757476 [-]
	Conversion factor mol/kg -> cm^3 STP/cm^3:       8.5314492781 [-]

	Partial pressure:      1000.00000000000000 [Pa]
	                          7.50000000000000 [Torr]
	                          0.01000000000000 [bar]
	                          0.00986923266716 [atm]

	Fugacity coefficient:       0.9996939749 [-]

	Partial fugacity:       999.69397486767548 [Pa]
	                          7.49770481150757 [Torr]
	                          0.00999693974868 [bar]
	                          0.00986621243393 [atm]

	Molecule contains 1 number of atoms
		atom:    0  is of type:    1 [    Ar_gas] (group: 0)

	Molecule contains 0 chirality centers

	Molecule contains 1 number of groups

		group: 0 containing: 1 elements
		-------------------------------------------------
		the group represents a point particle
		Mass: 39.950000 [a.u.]
		Mass: 11.304027 [kg/m^3]

		Rotational Degrees of freedom: 0
		Diagonalized inertia vector:       0.0000000000
		                                   0.0000000000
		                                   0.0000000000
		number of atoms: 1
			element: 0 atom: 0 [    Ar_gas] Charge:  0.000000 Anisotropy: 0.000000 Position:  0.000000 -0.000000  0.000000 Connectivity: 0 ()
		number of permanent dipoles: 0
		number of polarizabilities: 0

		Dipole:           0.0000000000 [D]
		Quadrupole:       0.0000000000       0.0000000000       0.0000000000 [D Angstrom]
		Quadrupole tensor [D Angstrom]
				       0.0000000000       0.0000000000       0.0000000000
				       0.0000000000       0.0000000000       0.0000000000
				       0.0000000000       0.0000000000       0.0000000000

	Starting bead for growth               : 0

	Degrees of freedom                     : 0
	Translational degrees of freedom       : 0
	Rotational degrees of freedom          : 0
	Vibrational degrees of freedom         : 0
	Constraint degrees of freedom          : 0

	Number of atoms                        : 1

	Number of constraint bonds             : 0
	Number of constraint bends             : 0
	Number of constraint inversion bends   : 0
	Number of constraint torsions          : 0
	Number of constraint improper torsions : 0
	Number of constraint improper torsions : 0

	Number of bonds                        : 0
	Number of Urey-Bradleys                : 0
	Number of bends                        : 0
	Number of inversion bends              : 0
	Number of torsions                     : 0
	Number of improper torsions            : 0
	Number of improper torsions            : 0

	Number of bond/bond cross terms        : 0
	Number of bond/bend cross terms        : 0
	Number of bend/bend cross terms        : 0
	Number of stretch/torsion cross terms  : 0
	Number of bend/torsion cross terms     : 0

	Number of charges                      : 0
	Number of bond-dipoles                 : 0

	Number of intra Van der Waals                             : 0
	Number of intra charge-charge Coulomb                     : 0
	Number of intra charge-bonddipole Coulomb                 : 0
	Number of intra bonddipole-bonddipole Coulomb             : 0

	Number of excluded intra charge-charge Coulomb                     : 0
	Number of excluded intra charge-bonddipole Coulomb                 : 0
	Number of excluded intra bonddipole-bonddipole Coulomb             : 0

	Number of cbmc-config moves                               : 0

	Particle Moves:             
		ProbabilityTranslationMove:                  50.000000
			TranslationDirection:      XYZ
		Percentage of random translation moves:            0.000000
		Percentage of rotation moves:                      0.000000
		Percentage of random rotation moves:               0.000000
		Percentage of partial reinsertion moves:           0.000000
		Percentage of reinsertion moves:                   25.000000
		Percentage of reinsertion-in-place moves:          0.000000
		Percentage of reinsertion-in-plane moves:          0.000000
		Percentage of identity-change moves:               0.000000
		Percentage of swap (insert/delete) moves:          25.000000
		Percentage of CF swap lambda moves:                0.000000
		Percentage of CB/CFMC swap lambda moves:           0.000000
		Percentage of Widom insertion moves:               0.000000
		Percentage of CF-Widom insertion moves:            0.000000
		Percentage of Gibbs Widom insertion moves:         0.000000
		Percentage of surface-area moves:                  0.000000
		Percentage of Gibbs particle-transfer moves:       0.000000
		Percentage of Gibbs identity-change moves:         0.000000
		Percentage of CF Gibbs lambda-transfer moves:      0.000000
		Percentage of CB/CFMC Gibbs lambda-transfer moves: 0.000000
		Percentage of exchange frac./int. particle moves:  0.000000
		Percentage of fractional mol. to other box moves:  0.000000
		Percentage of lambda-change moves:                 0.000000
		Percentage of fractional to integer moves:         0.000000

	System Moves:
		Percentage of parallel-tempering moves:            0.000000
		Percentage of hyper-parallel-tempering moves:      0.000000
		Percentage of parallel-mol-fraction moves:         0.000000
			   Component A: 0 B: 1
		Percentage of chiral inversion moves:              0.000000
		Percentage of Hybrid-NVE moves:                    0.000000
		Percentage of Hybrid-NPH moves:                    0.000000
		Percentage of Hybrid-NPHPR moves:                  0.000000
		Percentage of volume-change moves:                 0.000000
		Percentage of box-shape-change moves:              0.000000
		Percentage of Gibbs volume-change moves:           0.000000
		Percentage of framework-change moves:              0.000000
		Percentage of framework-shift moves:               0.000000
		Percentage of reactive MC moves:                   0.000000

	Moves are restricted: No
	No biased sampling used for this component


	number of identity-config changes: 1
	--------------------------------------------
	nr fixed 1: 0 

	Number of pockets blocked in a unitcell: 0
		Pockets are NOT blocked for this component



Framework Status
===========================================================================
Lowenstein's rule obeyed by framework
	Framework is modelled as: rigid

	Number of charges:                               0
	Number of bonddipoles:                           0


System Properties
===========================================================================
Unit cell size: 2.460000 4.260000 20.000000
Cell angles (radians)  alpha: 1.570796 beta: 1.570796 gamma: 1.570796
Cell angles (degrees)  alpha: 90.000000 beta: 90.000000 gamma: 90.000000
Number of unitcells [a]: 7
Number of unitcells [b]: 4
Number of unitcells [c]: 1

RECTANGULAR Boundary conditions: alpha=beta=gamma=90 degrees

Cartesian axis A is collinear with crystallographic axis a
Cartesian axis B is collinear with (axb)xA
Cartesian axis C is collinear with (axb)

lengths of cell vectors:
 17.22000  17.04000  20.00000
cosines of cell angles:
  0.00000   0.00000   0.00000
perpendicular cell widths:
 17.22000  17.04000  20.00000
volume of the cell:  5868.575999999999 (A^3)

Orthogonalization matrix Box
Transforms fractional coordinates abc into orthonormal Cartesian coordinates xyz
Deorthogonalization matrix InverseBox
Transforms orthonormal Cartesian coordinates xyz into fractional coordinates xyz

Box[0]:
	   17.220000000000     0.000000000000     0.000000000000
	    0.000000000000    17.040000000000     0.000000000000
	    0.000000000000     0.000000000000    20.000000000000

Inverse box[0]:
	    0.058072009292     0.000000000000     0.000000000000
	    0.000000000000     0.058685446009     0.000000000000
	    0.000000000000     0.000000000000     0.050000000000


Unitcell box[0]:
	    2.460000000000     0.000000000000     0.000000000000
	    0.000000000000     4.260000000000     0.000000000000
	    0.000000000000     0.000000000000    20.000000000000

Unitcell inverse box[0]:
	    0.406504065041    -0.000000000000    -0.000000000000
	    0.000000000000     0.234741784038    -0.000000000000
	    0.000000000000     0.000000000000     0.050000000000

lengths of cell vectors (inverse box):
  0.05807   0.05869   0.05000
cosines of cell angles (inverse box):
 -0.00000  -0.00000  -0.00000
perpendicular cell widths (inverse):
  0.05807   0.05869   0.05000
volume of the cell:  5868.575999999999 (A^3)

No replicas are used
Framework is simulated as 'rigid'
Number of framework atoms: 112
Number of framework atoms in the unit cell: 4
Framework Mass:  1345.202420437623 [g/mol]
Framework Density:   380.630789208962 [kg/m^3]    2.6272178403598 [cm^3/g]
Helium void fraction:    0.83810000
Available pore volume: 4918.45354560 [A^3]    2.20187127 [cm^3/g]
Conversion factor from molecule/unit cell -> kmol/m^3: 0.282954, kmol/m^3 accesible pore volume: 0.337614

Number Of Frameworks (per system): 1
----------------------------------------------------------------------
Framework name: framework_1
Space group: 1
	Identifier: 1
	short international Hermann-Mauguin symbol: P 1
	long international Hermann-Mauguin symbol: P 1
	Hall symbol: P 1
	Number of lattice translations: 1 [ (0,0,0) ]
	acentric/centric: acentric
	chiral: no
	enantiomorphic: no
	number of operators: 1
		'x,y,z'
Framework is simulated as 'rigid'
Shift: 0.000000 0.000000 0.000000
Number of framework atoms: 112
Number of asymmetric atoms: 4
Number of free framework atoms: 0
Number of fixed framework atoms: 112
Number of framework atoms in the unit cell: 4
Framework Mass:  1345.202420437623 [g/mol]
Framework Density:   380.630789208962 [kg/m^3]
Framework has net charge: 0.000000
         largest charge : 0.000000
         smallest charge: 0.000000

Using FULL Host-guest interaction calculation (for testing purposes)

Current Atom Status
===========================================================================
Number of framework atoms        : 112
Number of cations molecules      : 0
Number of adsorbate molecules    : 93
Component    0 :   93 molecules
Pseudo Atoms    0 [    UNIT]:    0 atoms
Pseudo Atoms    1 [  Ar_gas]:   93 atoms
Pseudo Atoms    2 [       C]:  112 atoms


Current (initial full energy) Energy Status
===========================================================================

Internal energy:
Host stretch energy:                                            0.00000000
Host UreyBradley energy:                                        0.00000000
Host bend energy:                                               0.00000000
Host inversion-bend energy:                                     0.00000000
Host torsion energy:                                            0.00000000
Host improper torsion energy:                                   0.00000000
Host out-of-plane energy:                                       0.00000000
Host stretch/stretch energy:                                    0.00000000
Host bend/bend energy:                                          0.00000000
Host stretch/bend energy:                                       0.00000000
Host stretch/torsion energy:                                    0.00000000
Host bend/torsion energy:                                       0.00000000

Adsorbate stretch energy:                                       0.00000000
Adsorbate UreyBradley energy:                                   0.00000000
Adsorbate bend energy:                                          0.00000000
Adsorbate inversion-bend energy:                                0.00000000
Adsorbate torsion energy:                                       0.00000000
Adsorbate improper torsion energy:                              0.00000000
Adsorbate out-of-plane energy:                                  0.00000000
Adsorbate stretch/stretch energy:                               0.00000000
Adsorbate bend/bend energy:                                     0.00000000
Adsorbate stretch/bend energy:                                  0.00000000
Adsorbate stretch/torsion energy:                               0.00000000
Adsorbate bend/torsion energy:                                  0.00000000
Adsorbate intra VDW energy:                                     0.00000000
Adsorbate intra charge-charge Coulomb energy:                   0.00000000
Adsorbate intra charge-bonddipole Coulomb energy:               0.00000000
Adsorbate intra bonddipole-bonddipole Coulomb energy:           0.00000000

Cation stretch energy:                                          0.00000000
Cation UreyBradley energy:                                      0.00000000
Cation bend energy:                                             0.00000000
Cation inversion-bend energy:                                   0.00000000
Cation torsion energy:                                          0.00000000
Cation improper torsion energy:                                 0.00000000
Cation out-of-plane energy:                                     0.00000000
Cation stretch/stretch energy:                                  0.00000000
Cation bend/bend energy:                                        0.00000000
Cation stretch/bend energy:                                     0.00000000
Cation stretch/torsion energy:                                  0.00000000
Cation bend/torsion energy:                                     0.00000000
Cation intra VDW energy:                                        0.00000000
Cation intra charge-charge Coulomb energy:                      0.00000000
Cation intra charge-bonddipole Coulomb energy:                  0.00000000
Cation intra bonddipole-bonddipole Coulomb energy:              0.00000000

Host/Host energy:                                             0.00000000
	Host/Host VDW energy:                                         0.00000000
	Host/Host Coulomb energy:                                     0.00000000
	Host/Host charge-charge Real energy:                          0.00000000
	Host/Host charge-charge Fourier energy:                       0.00000000
	Host/Host charge-bonddipole Real energy:                      0.00000000
	Host/Host charge-bonddipole Fourier energy:                   0.00000000
	Host/Host bondipole-bonddipole Real energy:                   0.00000000
	Host/Host bondipole-bonddipole Fourier energy:                0.00000000

Host/Adsorbate energy:                                   -53626.74560898
	Host/Adsorbate VDW energy:                               -53626.74560898
	Host/Adsorbate Coulomb energy:                                0.00000000
	Host/Adsorbate charge-charge Real energy:                     0.00000000
	Host/Adsorbate charge-charge Fourier energy:                  0.00000000
	Host/Adsorbate charge-bonddipole Real energy:                 0.00000000
	Host/Adsorbate charge-bonddipole Fourier energy:              0.00000000
	Host/Adsorbate bondipole-bonddipole Real energy:              0.00000000
	Host/Adsorbate bondipole-bonddipole Fourier energy:           0.00000000

Host/Cation energy:                                           0.00000000
	Host/Cation VDW energy:                                       0.00000000
	Host/Cation Coulomb energy:                                   0.00000000
	Host/Cation charge-charge Real energy:                        0.00000000
	Host/Cation charge-charge Fourier energy:                     0.00000000
	Host/Cation charge-bonddipole Real energy:                    0.00000000
	Host/Cation charge-bonddipole Fourier energy:                 0.00000000
	Host/Cation bondipole-bonddipole Real energy:                 0.00000000
	Host/Cation bondipole-bonddipole Fourier energy:              0.00000000

Adsorbate/Adsorbate energy:                                   -46359.05073798
	Adsorbate/Adsorbate VDW energy:                               -46359.05073798
	Adsorbate/Adsorbate Coulomb energy:                                0.00000000
	Adsorbate/Adsorbate charge-charge Real energy:                     0.00000000
	Adsorbate/Adsorbate charge-charge Fourier energy:                  0.00000000
	Adsorbate/Adsorbate charge-bonddipole Real energy:                 0.00000000
	Adsorbate/Adsorbate charge-bonddipole Fourier energy:              0.00000000
	Adsorbate/Adsorbate bondipole-bonddipole Real energy:              0.00000000
	Adsorbate/Adsorbate bondipole-bonddipole Fourier energy:           0.00000000

Adsorbate/Cation energy:                                           0.00000000
	Adsorbate/Cation VDW energy:                                       0.00000000
	Adsorbate/Cation Coulomb energy:                                   0.00000000
	Adsorbate/Cation charge-charge Real energy:                        0.00000000
	Adsorbate/Cation charge-charge Fourier energy:                     0.00000000
	Adsorbate/Cation charge-bonddipole Real energy:                    0.00000000
	Adsorbate/Cation charge-bonddipole Fourier energy:                 0.00000000
	Adsorbate/Cation bondipole-bonddipole Real energy:                 0.00000000
	Adsorbate/Cation bondipole-bonddipole Fourier energy:              0.00000000

Cation/Cation energy:                                           0.00000000
	Cation/Cation VDW energy:                                       0.00000000
	Cation/Cation Coulomb energy:                                   0.00000000
	Cation/Cation charge-charge Real energy:                        0.00000000
	Cation/Cation charge-charge Fourier energy:                     0.00000000
	Cation/Cation charge-bonddipole Real energy:                    0.00000000
	Cation/Cation charge-bonddipole Fourier energy:                 0.00000000
	Cation/Cation bondipole-bonddipole Real energy:                 0.00000000
	Cation/Cation bondipole-bonddipole Fourier energy:              0.00000000

Polarization energy:
	Host polarization energy:                                     0.00000000
	Adsorbate polarization energy:                                0.00000000
	Cation polarization energy:                                   0.00000000
	Host back-polarization energy:                                     0.00000000
	Adsorbate back-polarization energy:                                0.00000000
	Cation back-polarization energy:                                   0.00000000

Tail-correction energy:                                  -14613.41611269

Distance constraints energy:                                  0.00000000
Angle constraints energy:                                     0.00000000
Dihedral constraints energy:                                  0.00000000
Inversion-bend constraints energy:                            0.00000000
Out-of-plane distance constraints energy:                     0.00000000
Exclusion constraints energy:                                 0.00000000

===================================================================
Total energy: -114599.212459643255
	Total Van der Waals: -99985.796347
	Total Coulomb: 0.000000

	Total Polarization: 0.000000







+++++++++++++++++++++++++++++++++++++++++++++++++++++++++++++++++++++++++
Starting simulation
+++++++++++++++++++++++++++++++++++++++++++++++++++++++++++++++++++++++++

[Init] Current cycle: 0 out of 300
========================================================================================================

Net charge: 0 (F: 0, A: 0, C: 0)
Current Box:  17.22000   0.00000   0.00000 [A]
               0.00000  17.04000   0.00000 [A]
               0.00000   0.00000  20.00000 [A]
Box-lengths:  17.22000  17.04000  20.00000 Box-angles:   90.00000  90.00000  90.00000 [degrees]
Volume: 5868.57600 [A^3]

Loadings per component:
----------------------------------------------------------------------------------------------------------------------------------------------------
Component 0 (Ar), current number of integer/fractional/reaction molecules: 93/0/0, density: 1051.27514 [kg/m^3]
	absolute adsorption:   3.32143 [mol/uc],        69.1346 [mol/kg],           2761.9263 [mg/g]
	                                              1549.5807 [cm^3 STP/g],        589.8181 [cm^3 STP/cm^3]
	excess adsorption:     3.32128 [mol/uc],        69.1315 [mol/kg],           2761.8047 [mg/g]
	                                              1549.5125 [cm^3 STP/g],        589.7922 [cm^3 STP/cm^3]
----------------------------------------------------------------------------------------------------------------------------------------------------
Degrees of freedom: 279 0 279 0
Number of Framework-atoms:    112
Number of Adsorbates:          93 (93 integer, 0 fractional, 0 reaction)
Number of Cations:              0 (0 integer, 0 fractional, 0 reaction

Current total potential energy:           -114599.2124596433 [K]
	Current Host-Host energy:                     0.0000000000 [K]
	Current Host-Adsorbate energy:           -53626.7456089801 [K]
	Current Host-Cation energy:                   0.0000000000 [K]
	Current Adsorbate-Adsorbate energy:      -46359.0507379753 [K]
	Current Cation-Cation energy:                 0.0000000000 [K]
	Current Adsorbate-Cation energy:              0.0000000000 [K]



[Init] Current cycle: 30 out of 300
========================================================================================================

Net charge: 0 (F: 0, A: 0, C: 0)
Current Box:  17.22000   0.00000   0.00000 [A]
               0.00000  17.04000   0.00000 [A]
               0.00000   0.00000  20.00000 [A]
Box-lengths:  17.22000  17.04000  20.00000 Box-angles:   90.00000  90.00000  90.00000 [degrees]
Volume: 5868.57600 [A^3]

Loadings per component:
----------------------------------------------------------------------------------------------------------------------------------------------------
Component 0 (Ar), current number of integer/fractional/reaction molecules: 51/0/0, density: 576.50572 [kg/m^3]
	absolute adsorption:   1.82143 [mol/uc],        37.9125 [mol/kg],           1514.6048 [mg/g]
	                                               849.7701 [cm^3 STP/g],        323.4487 [cm^3 STP/cm^3]
	excess adsorption:     1.82128 [mol/uc],        37.9095 [mol/kg],           1514.4831 [mg/g]
	                                               849.7018 [cm^3 STP/g],        323.4227 [cm^3 STP/cm^3]
----------------------------------------------------------------------------------------------------------------------------------------------------
Degrees of freedom: 153 0 153 0
Number of Framework-atoms:    112
Number of Adsorbates:          51 (51 integer, 0 fractional, 0 reaction)
Number of Cations:              0 (0 integer, 0 fractional, 0 reaction

Current total potential energy:            -74627.5533944177 [K]
	Current Host-Host energy:                     0.0000000000 [K]
	Current Host-Adsorbate energy:           -50695.4652012658 [K]
	Current Host-Cation energy:                   0.0000000000 [K]
	Current Adsorbate-Adsorbate energy:      -15697.7858076530 [K]
	Current Cation-Cation energy:                 0.0000000000 [K]
	Current Adsorbate-Cation energy:              0.0000000000 [K]



[Init] Current cycle: 60 out of 300
========================================================================================================

Net charge: 0 (F: 0, A: 0, C: 0)
Current Box:  17.22000   0.00000   0.00000 [A]
               0.00000  17.04000   0.00000 [A]
               0.00000   0.00000  20.00000 [A]
Box-lengths:  17.22000  17.04000  20.00000 Box-angles:   90.00000  90.00000  90.00000 [degrees]
Volume: 5868.57600 [A^3]

Loadings per component:
----------------------------------------------------------------------------------------------------------------------------------------------------
Component 0 (Ar), current number of integer/fractional/reaction molecules: 45/0/0, density: 508.68152 [kg/m^3]
	absolute adsorption:   1.60714 [mol/uc],        33.4522 [mol/kg],           1336.4160 [mg/g]
	                                               749.7971 [cm^3 STP/g],        285.3959 [cm^3 STP/cm^3]
	excess adsorption:     1.60700 [mol/uc],        33.4492 [mol/kg],           1336.2943 [mg/g]
	                                               749.7289 [cm^3 STP/g],        285.3699 [cm^3 STP/cm^3]
----------------------------------------------------------------------------------------------------------------------------------------------------
Degrees of freedom: 135 0 135 0
Number of Framework-atoms:    112
Number of Adsorbates:          45 (45 integer, 0 fractional, 0 reaction)
Number of Cations:              0 (0 integer, 0 fractional, 0 reaction

Current total potential energy:            -71832.1306057955 [K]
	Current Host-Host energy:                     0.0000000000 [K]
	Current Host-Adsorbate energy:           -51106.8659544360 [K]
	Current Host-Cation energy:                   0.0000000000 [K]
	Current Adsorbate-Adsorbate energy:      -13253.9493258344 [K]
	Current Cation-Cation energy:                 0.0000000000 [K]
	Current Adsorbate-Cation energy:              0.0000000000 [K]



[Init] Current cycle: 90 out of 300
========================================================================================================

Net charge: 0 (F: 0, A: 0, C: 0)
Current Box:  17.22000   0.00000   0.00000 [A]
               0.00000  17.04000   0.00000 [A]
               0.00000   0.00000  20.00000 [A]
Box-lengths:  17.22000  17.04000  20.00000 Box-angles:   90.00000  90.00000  90.00000 [degrees]
Volume: 5868.57600 [A^3]

Loadings per component:
----------------------------------------------------------------------------------------------------------------------------------------------------
Component 0 (Ar), current number of integer/fractional/reaction molecules: 44/0/0, density: 497.37748 [kg/m^3]
	absolute adsorption:   1.57143 [mol/uc],        32.7088 [mol/kg],           1306.7178 [mg/g]
	                                               733.1350 [cm^3 STP/g],        279.0537 [cm^3 STP/cm^3]
	excess adsorption:     1.57128 [mol/uc],        32.7058 [mol/kg],           1306.5962 [mg/g]
	                                               733.0667 [cm^3 STP/g],        279.0278 [cm^3 STP/cm^3]
----------------------------------------------------------------------------------------------------------------------------------------------------
Degrees of freedom: 132 0 132 0
Number of Framework-atoms:    112
Number of Adsorbates:          44 (44 integer, 0 fractional, 0 reaction)
Number of Cations:              0 (0 integer, 0 fractional, 0 reaction

Current total potential energy:            -69842.5723832945 [K]
	Current Host-Host energy:                     0.0000000000 [K]
	Current Host-Adsorbate energy:           -50717.4985866331 [K]
	Current Host-Cation energy:                   0.0000000000 [K]
	Current Adsorbate-Adsorbate energy:      -11777.3181050645 [K]
	Current Cation-Cation energy:                 0.0000000000 [K]
	Current Adsorbate-Cation energy:              0.0000000000 [K]



[Init] Current cycle: 120 out of 300
========================================================================================================

Net charge: 0 (F: 0, A: 0, C: 0)
Current Box:  17.22000   0.00000   0.00000 [A]
               0.00000  17.04000   0.00000 [A]
               0.00000   0.00000  20.00000 [A]
Box-lengths:  17.22000  17.04000  20.00000 Box-angles:   90.00000  90.00000  90.00000 [degrees]
Volume: 5868.57600 [A^3]

Loadings per component:
----------------------------------------------------------------------------------------------------------------------------------------------------
Component 0 (Ar), current number of integer/fractional/reaction molecules: 43/0/0, density: 486.07345 [kg/m^3]
	absolute adsorption:   1.53571 [mol/uc],        31.9654 [mol/kg],           1277.0197 [mg/g]
	                                               716.4728 [cm^3 STP/g],        272.7116 [cm^3 STP/cm^3]
	excess adsorption:     1.53557 [mol/uc],        31.9624 [mol/kg],           1276.8981 [mg/g]
	                                               716.4046 [cm^3 STP/g],        272.6856 [cm^3 STP/cm^3]
----------------------------------------------------------------------------------------------------------------------------------------------------
Degrees of freedom: 129 0 129 0
Number of Framework-atoms:    112
Number of Adsorbates:          43 (43 integer, 0 fractional, 0 reaction)
Number of Cations:              0 (0 integer, 0 fractional, 0 reaction

Current total potential energy:            -69951.1347807312 [K]
	Current Host-Host energy:                     0.0000000000 [K]
	Current Host-Adsorbate energy:           -51144.0212647414 [K]
	Current Host-Cation energy:                   0.0000000000 [K]
	Current Adsorbate-Adsorbate energy:      -11581.8874937305 [K]
	Current Cation-Cation energy:                 0.0000000000 [K]
	Current Adsorbate-Cation energy:              0.0000000000 [K]



[Init] Current cycle: 150 out of 300
========================================================================================================

Net charge: 0 (F: 0, A: 0, C: 0)
Current Box:  17.22000   0.00000   0.00000 [A]
               0.00000  17.04000   0.00000 [A]
               0.00000   0.00000  20.00000 [A]
Box-lengths:  17.22000  17.04000  20.00000 Box-angles:   90.00000  90.00000  90.00000 [degrees]
Volume: 5868.57600 [A^3]

Loadings per component:
----------------------------------------------------------------------------------------------------------------------------------------------------
Component 0 (Ar), current number of integer/fractional/reaction molecules: 42/0/0, density: 474.76942 [kg/m^3]
	absolute adsorption:   1.50000 [mol/uc],        31.2221 [mol/kg],           1247.3216 [mg/g]
	                                               699.8107 [cm^3 STP/g],        266.3695 [cm^3 STP/cm^3]
	excess adsorption:     1.49985 [mol/uc],        31.2190 [mol/kg],           1247.1999 [mg/g]
	                                               699.7424 [cm^3 STP/g],        266.3435 [cm^3 STP/cm^3]
----------------------------------------------------------------------------------------------------------------------------------------------------
Degrees of freedom: 126 0 126 0
Number of Framework-atoms:    112
Number of Adsorbates:          42 (42 integer, 0 fractional, 0 reaction)
Number of Cations:              0 (0 integer, 0 fractional, 0 reaction

Current total potential energy:            -68911.2320448637 [K]
	Current Host-Host energy:                     0.0000000000 [K]
	Current Host-Adsorbate energy:           -49816.0433782975 [K]
	Current Host-Cation energy:                   0.0000000000 [K]
	Current Adsorbate-Adsorbate energy:      -11991.4623490541 [K]
	Current Cation-Cation energy:                 0.0000000000 [K]
	Current Adsorbate-Cation energy:              0.0000000000 [K]



[Init] Current cycle: 180 out of 300
========================================================================================================

Net charge: 0 (F: 0, A: 0, C: 0)
Current Box:  17.22000   0.00000   0.00000 [A]
               0.00000  17.04000   0.00000 [A]
               0.00000   0.00000  20.00000 [A]
Box-lengths:  17.22000  17.04000  20.00000 Box-angles:   90.00000  90.00000  90.00000 [degrees]
Volume: 5868.57600 [A^3]

Loadings per component:
----------------------------------------------------------------------------------------------------------------------------------------------------
Component 0 (Ar), current number of integer/fractional/reaction molecules: 42/0/0, density: 474.76942 [kg/m^3]
	absolute adsorption:   1.50000 [mol/uc],        31.2221 [mol/kg],           1247.3216 [mg/g]
	                                               699.8107 [cm^3 STP/g],        266.3695 [cm^3 STP/cm^3]
	excess adsorption:     1.49985 [mol/uc],        31.2190 [mol/kg],           1247.1999 [mg/g]
	                                               699.7424 [cm^3 STP/g],        266.3435 [cm^3 STP/cm^3]
----------------------------------------------------------------------------------------------------------------------------------------------------
Degrees of freedom: 126 0 126 0
Number of Framework-atoms:    112
Number of Adsorbates:          42 (42 integer, 0 fractional, 0 reaction)
Number of Cations:              0 (0 integer, 0 fractional, 0 reaction

Current total potential energy:            -68912.4600885293 [K]
	Current Host-Host energy:                     0.0000000000 [K]
	Current Host-Adsorbate energy:           -49749.6924276875 [K]
	Current Host-Cation energy:                   0.0000000000 [K]
	Current Adsorbate-Adsorbate energy:      -12059.0413433296 [K]
	Current Cation-Cation energy:                 0.0000000000 [K]
	Current Adsorbate-Cation energy:              0.0000000000 [K]



[Init] Current cycle: 210 out of 300
========================================================================================================

Net charge: 0 (F: 0, A: 0, C: 0)
Current Box:  17.22000   0.00000   0.00000 [A]
               0.00000  17.04000   0.00000 [A]
               0.00000   0.00000  20.00000 [A]
Box-lengths:  17.22000  17.04000  20.00000 Box-angles:   90.00000  90.00000  90.00000 [degrees]
Volume: 5868.57600 [A^3]

Loadings per component:
----------------------------------------------------------------------------------------------------------------------------------------------------
Component 0 (Ar), current number of integer/fractional/reaction molecules: 43/0/0, density: 486.07345 [kg/m^3]
	absolute adsorption:   1.53571 [mol/uc],        31.9654 [mol/kg],           1277.0197 [mg/g]
	                                               716.4728 [cm^3 STP/g],        272.7116 [cm^3 STP/cm^3]
	excess adsorption:     1.53557 [mol/uc],        31.9624 [mol/kg],           1276.8981 [mg/g]
	                                               716.4046 [cm^3 STP/g],        272.6856 [cm^3 STP/cm^3]
----------------------------------------------------------------------------------------------------------------------------------------------------
Degrees of freedom: 129 0 129 0
Number of Framework-atoms:    112
Number of Adsorbates:          43 (43 integer, 0 fractional, 0 reaction)
Number of Cations:              0 (0 integer, 0 fractional, 0 reaction

Current total potential energy:            -68407.6548378965 [K]
	Current Host-Host energy:                     0.0000000000 [K]
	Current Host-Adsorbate energy:           -48964.2262873553 [K]
	Current Host-Cation energy:                   0.0000000000 [K]
	Current Adsorbate-Adsorbate energy:      -12218.2025282820 [K]
	Current Cation-Cation energy:                 0.0000000000 [K]
	Current Adsorbate-Cation energy:              0.0000000000 [K]



[Init] Current cycle: 240 out of 300
========================================================================================================

Net charge: 0 (F: 0, A: 0, C: 0)
Current Box:  17.22000   0.00000   0.00000 [A]
               0.00000  17.04000   0.00000 [A]
               0.00000   0.00000  20.00000 [A]
Box-lengths:  17.22000  17.04000  20.00000 Box-angles:   90.00000  90.00000  90.00000 [degrees]
Volume: 5868.57600 [A^3]

Loadings per component:
----------------------------------------------------------------------------------------------------------------------------------------------------
Component 0 (Ar), current number of integer/fractional/reaction molecules: 42/0/0, density: 474.76942 [kg/m^3]
	absolute adsorption:   1.50000 [mol/uc],        31.2221 [mol/kg],           1247.3216 [mg/g]
	                                               699.8107 [cm^3 STP/g],        266.3695 [cm^3 STP/cm^3]
	excess adsorption:     1.49985 [mol/uc],        31.2190 [mol/kg],           1247.1999 [mg/g]
	                                               699.7424 [cm^3 STP/g],        266.3435 [cm^3 STP/cm^3]
----------------------------------------------------------------------------------------------------------------------------------------------------
Degrees of freedom: 126 0 126 0
Number of Framework-atoms:    112
Number of Adsorbates:          42 (42 integer, 0 fractional, 0 reaction)
Number of Cations:              0 (0 integer, 0 fractional, 0 reaction

Current total potential energy:            -67650.6762787132 [K]
	Current Host-Host energy:                     0.0000000000 [K]
	Current Host-Adsorbate energy:           -48963.3913773724 [K]
	Current Host-Cation energy:                   0.0000000000 [K]
	Current Adsorbate-Adsorbate energy:      -11583.5585838286 [K]
	Current Cation-Cation energy:                 0.0000000000 [K]
	Current Adsorbate-Cation energy:              0.0000000000 [K]



[Init] Current cycle: 270 out of 300
========================================================================================================

Net charge: 0 (F: 0, A: 0, C: 0)
Current Box:  17.22000   0.00000   0.00000 [A]
               0.00000  17.04000   0.00000 [A]
               0.00000   0.00000  20.00000 [A]
Box-lengths:  17.22000  17.04000  20.00000 Box-angles:   90.00000  90.00000  90.00000 [degrees]
Volume: 5868.57600 [A^3]

Loadings per component:
----------------------------------------------------------------------------------------------------------------------------------------------------
Component 0 (Ar), current number of integer/fractional/reaction molecules: 42/0/0, density: 474.76942 [kg/m^3]
	absolute adsorption:   1.50000 [mol/uc],        31.2221 [mol/kg],           1247.3216 [mg/g]
	                                               699.8107 [cm^3 STP/g],        266.3695 [cm^3 STP/cm^3]
	excess adsorption:     1.49985 [mol/uc],        31.2190 [mol/kg],           1247.1999 [mg/g]
	                                               699.7424 [cm^3 STP/g],        266.3435 [cm^3 STP/cm^3]
----------------------------------------------------------------------------------------------------------------------------------------------------
Degrees of freedom: 126 0 126 0
Number of Framework-atoms:    112
Number of Adsorbates:          42 (42 integer, 0 fractional, 0 reaction)
Number of Cations:              0 (0 integer, 0 fractional, 0 reaction

Current total potential energy:            -69122.0853505922 [K]
	Current Host-Host energy:                     0.0000000000 [K]
	Current Host-Adsorbate energy:           -49497.8994039920 [K]
	Current Host-Cation energy:                   0.0000000000 [K]
	Current Adsorbate-Adsorbate energy:      -12520.4596290879 [K]
	Current Cation-Cation energy:                 0.0000000000 [K]
	Current Adsorbate-Cation energy:              0.0000000000 [K]



Average Properties at Current cycle: 0 out of 300
========================================================================================

Framework surface area:       0.0000000000 [m^2/g]        0.0000000000 [m^2/cm^3]       0.0000000000 [A^2]
	Framework 0 individual surface area:       0.0000000000 [m^2/g]        0.0000000000 [m^2/cm^3]       0.0000000000 [A^2]
	Cation surface area:                       0.0000000000 [m^2/g]        0.0000000000 [m^2/cm^3]       0.0000000000 [A^2]
Compressibility:       0.0000000000 [-]
Henry coefficients
	Component 0: 0 [mol/kg/Pa] (Rosenbluth factor new: 0 [-])
Energy <U_gh>_1-<U_h>_0 from Widom


Current cycle: 0 out of 300
========================================================================================================

Net charge: 0 (F: 0, A: 0, C: 0)
Current Box:  17.22000   0.00000   0.00000 [A]   Average Box:  17.22000   0.00000   0.00000 [A]
               0.00000  17.04000   0.00000 [A]                  0.00000  17.04000   0.00000 [A]
               0.00000   0.00000  20.00000 [A]                  0.00000   0.00000  20.00000 [A]
Box-lengths:   17.22000  17.04000  20.00000 [A] Average:  17.22000  17.04000  20.00000 [A]
Box-angles:   90.00000  90.00000  90.00000 [degrees] Average:  90.00000  90.00000  90.00000 [degrees]
Volume: 5868.57600 [A^3] Average Volume: 5868.57600 [A^3]

Loadings per component:
----------------------------------------------------------------------------------------------------------------------------------------------------
Component 0 (Ar), current number of integer/fractional/reaction molecules: 42/0/0 (avg.  42.00000), density: 474.76942 (avg. 474.76942) [kg/m^3]
	absolute adsorption:   1.50000 (avg.   1.50000) [mol/uc],  31.2220669261 (avg.  31.2220669261) [mol/kg], 1247.3215736961 (avg. 1247.3215736961) [mg/g]
	                     699.8106508704 (avg. 699.8106508704) [cm^3 STP/g],  266.3694803376 (avg. 266.3694803376) [cm^3 STP/cm^3]
	excess adsorption:     1.4998537146 (avg.   1.4642857143) [mol/uc],  31.2190220380 (avg.  30.4786843802) [mol/kg], 1247.1999304186 (avg. 1217.6234409890) [mg/g]
	                     699.7424028236 (avg. 683.1484925164) [cm^3 STP/g],  266.3435030297 (avg. 260.0273498534) [cm^3 STP/cm^3]
----------------------------------------------------------------------------------------------------------------------------------------------------
Degrees of freedom: 126 0 126 0
Number of Framework-atoms:    112
Number of Adsorbates:          42 (42 integer, 0 fractional, 0 reaction)
Number of Cations:              0 (0 integer, 0 fractional, 0 reaction)

Current total potential energy:            -67817.5048021118 [K]  (avg.      -67817.5048021118)
	Current Host-Host energy:                     0.0000000000 [K]  (avg.           0.0000000000)
	Current Host-Adsorbate energy:           -48958.2529104806 [K]  (avg.      -48958.2529104806)
	Current Host-Cation energy:                   0.0000000000 [K]  (avg.           0.0000000000)
	Current Adsorbate-Adsorbate energy:      -11755.5255741192 [K]  (avg.      -11755.5255741192)
	Current Cation-Cation energy:                 0.0000000000 [K]  (avg.           0.0000000000)
	Current Adsorbate-Cation energy:              0.0000000000 [K]  (avg.           0.0000000000)



Current cycle: 30 out of 300
========================================================================================================

Net charge: 0 (F: 0, A: 0, C: 0)
Current Box:  17.22000   0.00000   0.00000 [A]   Average Box:  17.22000   0.00000   0.00000 [A]
               0.00000  17.04000   0.00000 [A]                  0.00000  17.04000   0.00000 [A]
               0.00000   0.00000  20.00000 [A]                  0.00000   0.00000  20.00000 [A]
Box-lengths:   17.22000  17.04000  20.00000 [A] Average:  17.22000  17.04000  20.00000 [A]
Box-angles:   90.00000  90.00000  90.00000 [degrees] Average:  90.00000  90.00000  90.00000 [degrees]
Volume: 5868.57600 [A^3] Average Volume: 5868.57600 [A^3]

Loadings per component:
----------------------------------------------------------------------------------------------------------------------------------------------------
Component 0 (Ar), current number of integer/fractional/reaction molecules: 42/0/0 (avg.  42.00000), density: 474.76942 (avg. 474.76942) [kg/m^3]
	absolute adsorption:   1.50000 (avg.   1.50000) [mol/uc],  31.2220669261 (avg.  31.2220669261) [mol/kg], 1247.3215736961 (avg. 1247.3215736961) [mg/g]
	                     699.8106508704 (avg. 699.8106508704) [cm^3 STP/g],  266.3694803376 (avg. 266.3694803376) [cm^3 STP/cm^3]
	excess adsorption:     1.4998537146 (avg.   1.4642857143) [mol/uc],  31.2190220380 (avg.  30.4786843802) [mol/kg], 1247.1999304186 (avg. 1217.6234409890) [mg/g]
	                     699.7424028236 (avg. 683.1484925164) [cm^3 STP/g],  266.3435030297 (avg. 260.0273498534) [cm^3 STP/cm^3]
----------------------------------------------------------------------------------------------------------------------------------------------------
Degrees of freedom: 126 0 126 0
Number of Framework-atoms:    112
Number of Adsorbates:          42 (42 integer, 0 fractional, 0 reaction)
Number of Cations:              0 (0 integer, 0 fractional, 0 reaction)

Current total potential energy:            -68247.6058040533 [K]  (avg.      -68007.4138719713)
	Current Host-Host energy:                     0.0000000000 [K]  (avg.           0.0000000000)
	Current Host-Adsorbate energy:           -49140.2216661609 [K]  (avg.      -48962.7604660753)
	Current Host-Cation energy:                   0.0000000000 [K]  (avg.           0.0000000000)
	Current Adsorbate-Adsorbate energy:      -12003.6578203804 [K]  (avg.      -11940.9270883840)
	Current Cation-Cation energy:                 0.0000000000 [K]  (avg.           0.0000000000)
	Current Adsorbate-Cation energy:              0.0000000000 [K]  (avg.           0.0000000000)



Current cycle: 60 out of 300
========================================================================================================

Net charge: 0 (F: 0, A: 0, C: 0)
Current Box:  17.22000   0.00000   0.00000 [A]   Average Box:  17.22000   0.00000   0.00000 [A]
               0.00000  17.04000   0.00000 [A]                  0.00000  17.04000   0.00000 [A]
               0.00000   0.00000  20.00000 [A]                  0.00000   0.00000  20.00000 [A]
Box-lengths:   17.22000  17.04000  20.00000 [A] Average:  17.22000  17.04000  20.00000 [A]
Box-angles:   90.00000  90.00000  90.00000 [degrees] Average:  90.00000  90.00000  90.00000 [degrees]
Volume: 5868.57600 [A^3] Average Volume: 5868.57600 [A^3]

Loadings per component:
----------------------------------------------------------------------------------------------------------------------------------------------------
Component 0 (Ar), current number of integer/fractional/reaction molecules: 42/0/0 (avg.  42.18033), density: 474.76942 (avg. 476.80785) [kg/m^3]
	absolute adsorption:   1.50000 (avg.   1.50644) [mol/uc],  31.2220669261 (avg.  31.3561195163) [mol/kg], 1247.3215736961 (avg. 1252.6769746760) [mg/g]
	                     699.8106508704 (avg. 702.8153023769) [cm^3 STP/g],  266.3694803376 (avg. 267.5131432118) [cm^3 STP/cm^3]
	excess adsorption:     1.4998537146 (avg.   1.4707259953) [mol/uc],  31.2190220380 (avg.  30.6127369704) [mol/kg], 1247.1999304186 (avg. 1222.9788419690) [mg/g]
	                     699.7424028236 (avg. 686.1531440228) [cm^3 STP/g],  266.3435030297 (avg. 261.1710127276) [cm^3 STP/cm^3]
----------------------------------------------------------------------------------------------------------------------------------------------------
Degrees of freedom: 126 0 126 0
Number of Framework-atoms:    112
Number of Adsorbates:          42 (42 integer, 0 fractional, 0 reaction)
Number of Cations:              0 (0 integer, 0 fractional, 0 reaction)

Current total potential energy:            -67240.8054549217 [K]  (avg.      -68076.9522506301)
	Current Host-Host energy:                     0.0000000000 [K]  (avg.           0.0000000000)
	Current Host-Adsorbate energy:           -48677.7449058413 [K]  (avg.      -49081.1245014258)
	Current Host-Cation energy:                   0.0000000000 [K]  (avg.           0.0000000000)
	Current Adsorbate-Adsorbate energy:      -11459.3342315684 [K]  (avg.      -11870.1916488691)
	Current Cation-Cation energy:                 0.0000000000 [K]  (avg.           0.0000000000)
	Current Adsorbate-Cation energy:              0.0000000000 [K]  (avg.           0.0000000000)



Current cycle: 90 out of 300
========================================================================================================

Net charge: 0 (F: 0, A: 0, C: 0)
Current Box:  17.22000   0.00000   0.00000 [A]   Average Box:  17.22000   0.00000   0.00000 [A]
               0.00000  17.04000   0.00000 [A]                  0.00000  17.04000   0.00000 [A]
               0.00000   0.00000  20.00000 [A]                  0.00000   0.00000  20.00000 [A]
Box-lengths:   17.22000  17.04000  20.00000 [A] Average:  17.22000  17.04000  20.00000 [A]
Box-angles:   90.00000  90.00000  90.00000 [degrees] Average:  90.00000  90.00000  90.00000 [degrees]
Volume: 5868.57600 [A^3] Average Volume: 5868.57600 [A^3]

Loadings per component:
----------------------------------------------------------------------------------------------------------------------------------------------------
Component 0 (Ar), current number of integer/fractional/reaction molecules: 43/0/0 (avg.  42.18681), density: 486.07345 (avg. 476.88116) [kg/m^3]
	absolute adsorption:   1.53571 (avg.   1.50667) [mol/uc],  31.9654494719 (avg.  31.3609405885) [mol/kg], 1277.0197064031 (avg. 1252.8695765095) [mg/g]
	                     716.4728092245 (avg. 702.9233617717) [cm^3 STP/g],  272.7116108219 (avg. 267.5542739446) [cm^3 STP/cm^3]
	excess adsorption:     1.5355680003 (avg.   1.4709576138) [mol/uc],  31.9624045839 (avg.  30.6175580426) [mol/kg], 1276.8980631256 (avg. 1223.1714438024) [mg/g]
	                     716.4045611776 (avg. 686.2612034177) [cm^3 STP/g],  272.6856335139 (avg. 261.2121434604) [cm^3 STP/cm^3]
----------------------------------------------------------------------------------------------------------------------------------------------------
Degrees of freedom: 129 0 129 0
Number of Framework-atoms:    112
Number of Adsorbates:          43 (43 integer, 0 fractional, 0 reaction)
Number of Cations:              0 (0 integer, 0 fractional, 0 reaction)

Current total potential energy:            -69127.6347709384 [K]  (avg.      -67947.5883075845)
	Current Host-Host energy:                     0.0000000000 [K]  (avg.           0.0000000000)
	Current Host-Adsorbate energy:           -49296.1038549851 [K]  (avg.      -49046.0565346220)
	Current Host-Cation energy:                   0.0000000000 [K]  (avg.           0.0000000000)
	Current Adsorbate-Adsorbate energy:      -12606.3048936944 [K]  (avg.      -11775.1077084099)
	Current Cation-Cation energy:                 0.0000000000 [K]  (avg.           0.0000000000)
	Current Adsorbate-Cation energy:              0.0000000000 [K]  (avg.           0.0000000000)



Current cycle: 120 out of 300
========================================================================================================

Net charge: 0 (F: 0, A: 0, C: 0)
Current Box:  17.22000   0.00000   0.00000 [A]   Average Box:  17.22000   0.00000   0.00000 [A]
               0.00000  17.04000   0.00000 [A]                  0.00000  17.04000   0.00000 [A]
               0.00000   0.00000  20.00000 [A]                  0.00000   0.00000  20.00000 [A]
Box-lengths:   17.22000  17.04000  20.00000 [A] Average:  17.22000  17.04000  20.00000 [A]
Box-angles:   90.00000  90.00000  90.00000 [degrees] Average:  90.00000  90.00000  90.00000 [degrees]
Volume: 5868.57600 [A^3] Average Volume: 5868.57600 [A^3]

Loadings per component:
----------------------------------------------------------------------------------------------------------------------------------------------------
Component 0 (Ar), current number of integer/fractional/reaction molecules: 42/0/0 (avg.  42.34711), density: 474.76942 (avg. 478.69313) [kg/m^3]
	absolute adsorption:   1.50000 (avg.   1.51240) [mol/uc],  31.2220669261 (avg.  31.4801005370) [mol/kg], 1247.3215736961 (avg. 1257.6300164539) [mg/g]
	                     699.8106508704 (avg. 705.5942099685) [cm^3 STP/g],  266.3694803376 (avg. 268.5708810016) [cm^3 STP/cm^3]
	excess adsorption:     1.4998537146 (avg.   1.4766824085) [mol/uc],  31.2190220380 (avg.  30.7367179912) [mol/kg], 1247.1999304186 (avg. 1227.9318837468) [mg/g]
	                     699.7424028236 (avg. 688.9320516145) [cm^3 STP/g],  266.3435030297 (avg. 262.2287505174) [cm^3 STP/cm^3]
----------------------------------------------------------------------------------------------------------------------------------------------------
Degrees of freedom: 126 0 126 0
Number of Framework-atoms:    112
Number of Adsorbates:          42 (42 integer, 0 fractional, 0 reaction)
Number of Cations:              0 (0 integer, 0 fractional, 0 reaction)

Current total potential energy:            -68326.3019369037 [K]  (avg.      -68174.7723110044)
	Current Host-Host energy:                     0.0000000000 [K]  (avg.           0.0000000000)
	Current Host-Adsorbate energy:           -49028.7487504571 [K]  (avg.      -49078.9482505539)
	Current Host-Cation energy:                   0.0000000000 [K]  (avg.           0.0000000000)
	Current Adsorbate-Adsorbate energy:      -12193.8268689348 [K]  (avg.      -11949.8476827676)
	Current Cation-Cation energy:                 0.0000000000 [K]  (avg.           0.0000000000)
	Current Adsorbate-Cation energy:              0.0000000000 [K]  (avg.           0.0000000000)



Current cycle: 150 out of 300
========================================================================================================

Net charge: 0 (F: 0, A: 0, C: 0)
Current Box:  17.22000   0.00000   0.00000 [A]   Average Box:  17.22000   0.00000   0.00000 [A]
               0.00000  17.04000   0.00000 [A]                  0.00000  17.04000   0.00000 [A]
               0.00000   0.00000  20.00000 [A]                  0.00000   0.00000  20.00000 [A]
Box-lengths:   17.22000  17.04000  20.00000 [A] Average:  17.22000  17.04000  20.00000 [A]
Box-angles:   90.00000  90.00000  90.00000 [degrees] Average:  90.00000  90.00000  90.00000 [degrees]
Volume: 5868.57600 [A^3] Average Volume: 5868.57600 [A^3]

Loadings per component:
----------------------------------------------------------------------------------------------------------------------------------------------------
Component 0 (Ar), current number of integer/fractional/reaction molecules: 43/0/0 (avg.  42.43709), density: 486.07345 (avg. 479.71025) [kg/m^3]
	absolute adsorption:   1.53571 (avg.   1.51561) [mol/uc],  31.9654494719 (avg.  31.5469890984) [mol/kg], 1277.0197064031 (avg. 1260.3022144819) [mg/g]
	                     716.4728092245 (avg. 707.0934485616) [cm^3 STP/g],  272.7116108219 (avg. 269.1415373705) [cm^3 STP/cm^3]
	excess adsorption:     1.5355680003 (avg.   1.4798959319) [mol/uc],  31.9624045839 (avg.  30.8036065526) [mol/kg], 1276.8980631256 (avg. 1230.6040817749) [mg/g]
	                     716.4045611776 (avg. 690.4312902075) [cm^3 STP/g],  272.6856335139 (avg. 262.7994068863) [cm^3 STP/cm^3]
----------------------------------------------------------------------------------------------------------------------------------------------------
Degrees of freedom: 129 0 129 0
Number of Framework-atoms:    112
Number of Adsorbates:          43 (43 integer, 0 fractional, 0 reaction)
Number of Cations:              0 (0 integer, 0 fractional, 0 reaction)

Current total potential energy:            -69802.1425311009 [K]  (avg.      -68392.8486178785)
	Current Host-Host energy:                     0.0000000000 [K]  (avg.           0.0000000000)
	Current Host-Adsorbate energy:           -49858.7551422647 [K]  (avg.      -49145.4055656167)
	Current Host-Cation energy:                   0.0000000000 [K]  (avg.           0.0000000000)
	Current Adsorbate-Adsorbate energy:      -12718.1613665773 [K]  (avg.      -12090.4813053425)
	Current Cation-Cation energy:                 0.0000000000 [K]  (avg.           0.0000000000)
	Current Adsorbate-Cation energy:              0.0000000000 [K]  (avg.           0.0000000000)



Current cycle: 180 out of 300
========================================================================================================

Net charge: 0 (F: 0, A: 0, C: 0)
Current Box:  17.22000   0.00000   0.00000 [A]   Average Box:  17.22000   0.00000   0.00000 [A]
               0.00000  17.04000   0.00000 [A]                  0.00000  17.04000   0.00000 [A]
               0.00000   0.00000  20.00000 [A]                  0.00000   0.00000  20.00000 [A]
Box-lengths:   17.22000  17.04000  20.00000 [A] Average:  17.22000  17.04000  20.00000 [A]
Box-angles:   90.00000  90.00000  90.00000 [degrees] Average:  90.00000  90.00000  90.00000 [degrees]
Volume: 5868.57600 [A^3] Average Volume: 5868.57600 [A^3]

Loadings per component:
----------------------------------------------------------------------------------------------------------------------------------------------------
Component 0 (Ar), current number of integer/fractional/reaction molecules: 43/0/0 (avg.  42.42541), density: 486.07345 (avg. 479.57831) [kg/m^3]
	absolute adsorption:   1.53571 (avg.   1.51519) [mol/uc],  31.9654494719 (avg.  31.5383125395) [mol/kg], 1277.0197064031 (avg. 1259.9555859526) [mg/g]
	                     716.4728092245 (avg. 706.8989723801) [cm^3 STP/g],  272.7116108219 (avg. 269.0675137481) [cm^3 STP/cm^3]
	excess adsorption:     1.5355680003 (avg.   1.4794790845) [mol/uc],  31.9624045839 (avg.  30.7949299936) [mol/kg], 1276.8980631256 (avg. 1230.2574532456) [mg/g]
	                     716.4045611776 (avg. 690.2368140261) [cm^3 STP/g],  272.6856335139 (avg. 262.7253832638) [cm^3 STP/cm^3]
----------------------------------------------------------------------------------------------------------------------------------------------------
Degrees of freedom: 129 0 129 0
Number of Framework-atoms:    112
Number of Adsorbates:          43 (43 integer, 0 fractional, 0 reaction)
Number of Cations:              0 (0 integer, 0 fractional, 0 reaction)

Current total potential energy:            -68338.7211150177 [K]  (avg.      -68402.3260522145)
	Current Host-Host energy:                     0.0000000000 [K]  (avg.           0.0000000000)
	Current Host-Adsorbate energy:           -48922.2504992352 [K]  (avg.      -49135.8660426314)
	Current Host-Cation energy:                   0.0000000000 [K]  (avg.           0.0000000000)
	Current Adsorbate-Adsorbate energy:      -12191.2445935237 [K]  (avg.      -12110.9378545423)
	Current Cation-Cation energy:                 0.0000000000 [K]  (avg.           0.0000000000)
	Current Adsorbate-Cation energy:              0.0000000000 [K]  (avg.           0.0000000000)



Current cycle: 210 out of 300
========================================================================================================

Net charge: 0 (F: 0, A: 0, C: 0)
Current Box:  17.22000   0.00000   0.00000 [A]   Average Box:  17.22000   0.00000   0.00000 [A]
               0.00000  17.04000   0.00000 [A]                  0.00000  17.04000   0.00000 [A]
               0.00000   0.00000  20.00000 [A]                  0.00000   0.00000  20.00000 [A]
Box-lengths:   17.22000  17.04000  20.00000 [A] Average:  17.22000  17.04000  20.00000 [A]
Box-angles:   90.00000  90.00000  90.00000 [degrees] Average:  90.00000  90.00000  90.00000 [degrees]
Volume: 5868.57600 [A^3] Average Volume: 5868.57600 [A^3]

Loadings per component:
----------------------------------------------------------------------------------------------------------------------------------------------------
Component 0 (Ar), current number of integer/fractional/reaction molecules: 42/0/0 (avg.  42.46445), density: 474.76942 (avg. 480.01963) [kg/m^3]
	absolute adsorption:   1.50000 (avg.   1.51659) [mol/uc],  31.2220669261 (avg.  31.5673346488) [mol/kg], 1247.3215736961 (avg. 1261.1150192188) [mg/g]
	                     699.8106508704 (avg. 707.5494732339) [cm^3 STP/g],  266.3694803376 (avg. 269.3151144014) [cm^3 STP/cm^3]
	excess adsorption:     1.4998537146 (avg.   1.4808733920) [mol/uc],  31.2190220380 (avg.  30.8239521029) [mol/kg], 1247.1999304186 (avg. 1231.4168865117) [mg/g]
	                     699.7424028236 (avg. 690.8873148798) [cm^3 STP/g],  266.3435030297 (avg. 262.9729839172) [cm^3 STP/cm^3]
----------------------------------------------------------------------------------------------------------------------------------------------------
Degrees of freedom: 126 0 126 0
Number of Framework-atoms:    112
Number of Adsorbates:          42 (42 integer, 0 fractional, 0 reaction)
Number of Cations:              0 (0 integer, 0 fractional, 0 reaction)

Current total potential energy:            -68131.9224918411 [K]  (avg.      -68398.9474458184)
	Current Host-Host energy:                     0.0000000000 [K]  (avg.           0.0000000000)
	Current Host-Adsorbate energy:           -48397.9074925449 [K]  (avg.      -49080.8050590946)
	Current Host-Cation energy:                   0.0000000000 [K]  (avg.           0.0000000000)
	Current Adsorbate-Adsorbate energy:      -12630.2886817843 [K]  (avg.      -12157.8775370499)
	Current Cation-Cation energy:                 0.0000000000 [K]  (avg.           0.0000000000)
	Current Adsorbate-Cation energy:              0.0000000000 [K]  (avg.           0.0000000000)



Current cycle: 240 out of 300
========================================================================================================

Net charge: 0 (F: 0, A: 0, C: 0)
Current Box:  17.22000   0.00000   0.00000 [A]   Average Box:  17.22000   0.00000   0.00000 [A]
               0.00000  17.04000   0.00000 [A]                  0.00000  17.04000   0.00000 [A]
               0.00000   0.00000  20.00000 [A]                  0.00000   0.00000  20.00000 [A]
Box-lengths:   17.22000  17.04000  20.00000 [A] Average:  17.22000  17.04000  20.00000 [A]
Box-angles:   90.00000  90.00000  90.00000 [degrees] Average:  90.00000  90.00000  90.00000 [degrees]
Volume: 5868.57600 [A^3] Average Volume: 5868.57600 [A^3]

Loadings per component:
----------------------------------------------------------------------------------------------------------------------------------------------------
Component 0 (Ar), current number of integer/fractional/reaction molecules: 43/0/0 (avg.  42.49378), density: 486.07345 (avg. 480.35108) [kg/m^3]
	absolute adsorption:   1.53571 (avg.   1.51763) [mol/uc],  31.9654494719 (avg.  31.5891313367) [mol/kg], 1277.0197064031 (avg. 1261.9857969000) [mg/g]
	                     716.4728092245 (avg. 708.0380236676) [cm^3 STP/g],  272.7116108219 (avg. 269.5010717386) [cm^3 STP/cm^3]
	excess adsorption:     1.5355680003 (avg.   1.4819205691) [mol/uc],  31.9624045839 (avg.  30.8457487908) [mol/kg], 1276.8980631256 (avg. 1232.2876641929) [mg/g]
	                     716.4045611776 (avg. 691.3758653136) [cm^3 STP/g],  272.6856335139 (avg. 263.1589412543) [cm^3 STP/cm^3]
----------------------------------------------------------------------------------------------------------------------------------------------------
Degrees of freedom: 129 0 129 0
Number of Framework-atoms:    112
Number of Adsorbates:          43 (43 integer, 0 fractional, 0 reaction)
Number of Cations:              0 (0 integer, 0 fractional, 0 reaction)

Current total potential energy:            -69154.6913873956 [K]  (avg.      -68409.7089119641)
	Current Host-Host energy:                     0.0000000000 [K]  (avg.           0.0000000000)
	Current Host-Adsorbate energy:           -49725.0957844503 [K]  (avg.      -49079.2364996884)
	Current Host-Cation energy:                   0.0000000000 [K]  (avg.           0.0000000000)
	Current Adsorbate-Adsorbate energy:      -12204.3695806864 [K]  (avg.      -12166.6328006832)
	Current Cation-Cation energy:                 0.0000000000 [K]  (avg.           0.0000000000)
	Current Adsorbate-Cation energy:              0.0000000000 [K]  (avg.           0.0000000000)



Current cycle: 270 out of 300
========================================================================================================

Net charge: 0 (F: 0, A: 0, C: 0)
Current Box:  17.22000   0.00000   0.00000 [A]   Average Box:  17.22000   0.00000   0.00000 [A]
               0.00000  17.04000   0.00000 [A]                  0.00000  17.04000   0.00000 [A]
               0.00000   0.00000  20.00000 [A]                  0.00000   0.00000  20.00000 [A]
Box-lengths:   17.22000  17.04000  20.00000 [A] Average:  17.22000  17.04000  20.00000 [A]
Box-angles:   90.00000  90.00000  90.00000 [degrees] Average:  90.00000  90.00000  90.00000 [degrees]
Volume: 5868.57600 [A^3] Average Volume: 5868.57600 [A^3]

Loadings per component:
----------------------------------------------------------------------------------------------------------------------------------------------------
Component 0 (Ar), current number of integer/fractional/reaction molecules: 44/0/0 (avg.  42.57196), density: 497.37748 (avg. 481.23482) [kg/m^3]
	absolute adsorption:   1.57143 (avg.   1.52043) [mol/uc],  32.7088320178 (avg.  31.6472488250) [mol/kg], 1306.7178391102 (avg. 1264.3075905580) [mg/g]
	                     733.1349675785 (avg. 709.3406676412) [cm^3 STP/g],  279.0537413061 (avg. 269.9968981423) [cm^3 STP/cm^3]
	excess adsorption:     1.5712822860 (avg.   1.4847127043) [mol/uc],  32.7057871297 (avg.  30.9038662791) [mol/kg], 1306.5961958327 (avg. 1234.6094578510) [mg/g]
	                     733.0667195317 (avg. 692.6785092871) [cm^3 STP/g],  279.0277639982 (avg. 263.6547676580) [cm^3 STP/cm^3]
----------------------------------------------------------------------------------------------------------------------------------------------------
Degrees of freedom: 132 0 132 0
Number of Framework-atoms:    112
Number of Adsorbates:          44 (44 integer, 0 fractional, 0 reaction)
Number of Cations:              0 (0 integer, 0 fractional, 0 reaction)

Current total potential energy:            -70855.5061653662 [K]  (avg.      -68584.5182786754)
	Current Host-Host energy:                     0.0000000000 [K]  (avg.           0.0000000000)
	Current Host-Adsorbate energy:           -50721.8740575016 [K]  (avg.      -49190.3955728624)
	Current Host-Cation energy:                   0.0000000000 [K]  (avg.           0.0000000000)
	Current Adsorbate-Adsorbate energy:      -12785.8764162680 [K]  (avg.      -12220.7747165969)
	Current Cation-Cation energy:                 0.0000000000 [K]  (avg.           0.0000000000)
	Current Adsorbate-Cation energy:              0.0000000000 [K]  (avg.           0.0000000000)



+++++++++++++++++++++++++++++++++++++++++++++++++++++++++++++++++++++++++
Finishing simulation
+++++++++++++++++++++++++++++++++++++++++++++++++++++++++++++++++++++++++




Current (running energy) Energy Status
===========================================================================

Internal energy:
Host stretch energy:                                            0.00000000
Host UreyBradley energy:                                        0.00000000
Host bend energy:                                               0.00000000
Host inversion-bend energy:                                     0.00000000
Host torsion energy:                                            0.00000000
Host improper torsion energy:                                   0.00000000
Host out-of-plane energy:                                       0.00000000
Host stretch/stretch energy:                                    0.00000000
Host bend/bend energy:                                          0.00000000
Host stretch/bend energy:                                       0.00000000
Host stretch/torsion energy:                                    0.00000000
Host bend/torsion energy:                                       0.00000000

Adsorbate stretch energy:                                       0.00000000
Adsorbate UreyBradley energy:                                   0.00000000
Adsorbate bend energy:                                          0.00000000
Adsorbate inversion-bend energy:                                0.00000000
Adsorbate torsion energy:                                       0.00000000
Adsorbate improper torsion energy:                              0.00000000
Adsorbate out-of-plane energy:                                  0.00000000
Adsorbate stretch/stretch energy:                               0.00000000
Adsorbate bend/bend energy:                                     0.00000000
Adsorbate stretch/bend energy:                                  0.00000000
Adsorbate stretch/torsion energy:                               0.00000000
[...]
	Block[ 1]            0.00000 [K]
	Block[ 2]            0.00000 [K]
	Block[ 3]            0.00000 [K]
	Block[ 4]            0.00000 [K]
	------------------------------------------------------------------------------
	Average              0.00000 [K] +/-            0.00000 [K]

Average Cation Bend angle inversion energy:
===========================================
	Block[ 0]            0.00000 [K]
	Block[ 1]            0.00000 [K]
	Block[ 2]            0.00000 [K]
	Block[ 3]            0.00000 [K]
	Block[ 4]            0.00000 [K]
	------------------------------------------------------------------------------
	Average              0.00000 [K] +/-            0.00000 [K]

Average Cation Torsion energy:
==============================
	Block[ 0]            0.00000 [K]
	Block[ 1]            0.00000 [K]
	Block[ 2]            0.00000 [K]
	Block[ 3]            0.00000 [K]
	Block[ 4]            0.00000 [K]
	------------------------------------------------------------------------------
	Average              0.00000 [K] +/-            0.00000 [K]

Average Cation Improper Torsion energy:
=======================================
	Block[ 0]            0.00000 [K]
	Block[ 1]            0.00000 [K]
	Block[ 2]            0.00000 [K]
	Block[ 3]            0.00000 [K]
	Block[ 4]            0.00000 [K]
	------------------------------------------------------------------------------
	Average              0.00000 [K] +/-            0.00000 [K]

Average Cation Bond-Bond cross term energy:
=================================================
	Block[ 0]            0.00000 [K]
	Block[ 1]            0.00000 [K]
	Block[ 2]            0.00000 [K]
	Block[ 3]            0.00000 [K]
	Block[ 4]            0.00000 [K]
	------------------------------------------------------------------------------
	Average              0.00000 [K] +/-            0.00000 [K]

Average Cation Bend-Bend cross term energy:
===========================================
	Block[ 0]            0.00000 [K]
	Block[ 1]            0.00000 [K]
	Block[ 2]            0.00000 [K]
	Block[ 3]            0.00000 [K]
	Block[ 4]            0.00000 [K]
	------------------------------------------------------------------------------
	Average              0.00000 [K] +/-            0.00000 [K]

Average Cation Bond-Bend cross term energy:
==============================================
	Block[ 0]            0.00000 [K]
	Block[ 1]            0.00000 [K]
	Block[ 2]            0.00000 [K]
	Block[ 3]            0.00000 [K]
	Block[ 4]            0.00000 [K]
	------------------------------------------------------------------------------
	Average              0.00000 [K] +/-            0.00000 [K]

Average Cation Bond-Torsion cross term energy:
==============================================
	Block[ 0]            0.00000 [K]
	Block[ 1]            0.00000 [K]
	Block[ 2]            0.00000 [K]
	Block[ 3]            0.00000 [K]
	Block[ 4]            0.00000 [K]
	------------------------------------------------------------------------------
	Average              0.00000 [K] +/-            0.00000 [K]

Average Cation Bend-Torsion cross term energy:
==============================================
	Block[ 0]            0.00000 [K]
	Block[ 1]            0.00000 [K]
	Block[ 2]            0.00000 [K]
	Block[ 3]            0.00000 [K]
	Block[ 4]            0.00000 [K]
	------------------------------------------------------------------------------
	Average              0.00000 [K] +/-            0.00000 [K]

Average Cation Intra Van der Waals energy:
==========================================
	Block[ 0]            0.00000 [K]
	Block[ 1]            0.00000 [K]
	Block[ 2]            0.00000 [K]
	Block[ 3]            0.00000 [K]
	Block[ 4]            0.00000 [K]
	------------------------------------------------------------------------------
	Average              0.00000 [K] +/-            0.00000 [K]

Average Cation Intra charge-charge Coulomb energy:
====================================
	Block[ 0]            0.00000 [K]
	Block[ 1]            0.00000 [K]
	Block[ 2]            0.00000 [K]
	Block[ 3]            0.00000 [K]
	Block[ 4]            0.00000 [K]
	------------------------------------------------------------------------------
	Average              0.00000 [K] +/-            0.00000 [K]

Average Cation Intra charge-bonddipole Coulomb energy:
====================================
	Block[ 0]            0.00000 [K]
	Block[ 1]            0.00000 [K]
	Block[ 2]            0.00000 [K]
	Block[ 3]            0.00000 [K]
	Block[ 4]            0.00000 [K]
	------------------------------------------------------------------------------
	Average              0.00000 [K] +/-            0.00000 [K]

Average Cation Intra bonddipole-bonddipole Coulomb energy:
====================================
	Block[ 0]            0.00000 [K]
	Block[ 1]            0.00000 [K]
	Block[ 2]            0.00000 [K]
	Block[ 3]            0.00000 [K]
	Block[ 4]            0.00000 [K]
	------------------------------------------------------------------------------
	Average              0.00000 [K] +/-            0.00000 [K]

Average Host-Host energy:
=========================
	Block[ 0] 0.00000            Van der Waals: 0.00000            Coulomb: 0.00000            [K]
	Block[ 1] 0.00000            Van der Waals: 0.00000            Coulomb: 0.00000            [K]
	Block[ 2] 0.00000            Van der Waals: 0.00000            Coulomb: 0.00000            [K]
	Block[ 3] 0.00000            Van der Waals: 0.00000            Coulomb: 0.00000            [K]
	Block[ 4] 0.00000            Van der Waals: 0.00000            Coulomb: 0.00000            [K]
	------------------------------------------------------------------------------
	Average   0.00000            Van der Waals: 0.000000           Coulomb: 0.00000            [K]
	      +/- 0.00000                       +/- 0.000000                +/- 0.00000            [K]

Average Adsorbate-Adsorbate energy:
===================================
	Block[ 0] -11877.03927       Van der Waals: -11877.03927       Coulomb: 0.00000            [K]
	Block[ 1] -12018.58977       Van der Waals: -12018.58977       Coulomb: 0.00000            [K]
	Block[ 2] -12435.84607       Van der Waals: -12435.84607       Coulomb: 0.00000            [K]
	Block[ 3] -12334.42714       Van der Waals: -12334.42714       Coulomb: 0.00000            [K]
	Block[ 4] -12892.22064       Van der Waals: -12892.22064       Coulomb: 0.00000            [K]
	------------------------------------------------------------------------------
	Average   -12311.62458       Van der Waals: -12311.624578      Coulomb: 0.00000            [K]
	      +/- 708.67567                     +/- 708.675668              +/- 0.00000            [K]

Average Cation-Cation energy:
=============================
	Block[ 0] 0.00000            Van der Waals: 0.00000            Coulomb: 0.00000            [K]
	Block[ 1] 0.00000            Van der Waals: 0.00000            Coulomb: 0.00000            [K]
	Block[ 2] 0.00000            Van der Waals: 0.00000            Coulomb: 0.00000            [K]
	Block[ 3] 0.00000            Van der Waals: 0.00000            Coulomb: 0.00000            [K]
	Block[ 4] 0.00000            Van der Waals: 0.00000            Coulomb: 0.00000            [K]
	------------------------------------------------------------------------------
	Average   0.00000            Van der Waals: 0.000000           Coulomb: 0.00000            [K]
	      +/- 0.00000                       +/- 0.000000                +/- 0.00000            [K]

Average Host-Adsorbate energy:
==============================
	Block[ 0] -49087.84749       Van der Waals: -49087.84749       Coulomb: 0.00000            [K]
	Block[ 1] -49070.88566       Van der Waals: -49070.88566       Coulomb: 0.00000            [K]
	Block[ 2] -49252.42523       Van der Waals: -49252.42523       Coulomb: 0.00000            [K]
	Block[ 3] -48895.02329       Van der Waals: -48895.02329       Coulomb: 0.00000            [K]
	Block[ 4] -50220.74094       Van der Waals: -50220.74094       Coulomb: 0.00000            [K]
	------------------------------------------------------------------------------
	Average   -49305.38452       Van der Waals: -49305.384524      Coulomb: 0.00000            [K]
	      +/- 942.92756                     +/- 942.927558              +/- 0.00000            [K]

Average Host-Cation energy:
===========================
	Block[ 0] 0.00000            Van der Waals: 0.00000            Coulomb: 0.00000            [K]
	Block[ 1] 0.00000            Van der Waals: 0.00000            Coulomb: 0.00000            [K]
	Block[ 2] 0.00000            Van der Waals: 0.00000            Coulomb: 0.00000            [K]
	Block[ 3] 0.00000            Van der Waals: 0.00000            Coulomb: 0.00000            [K]
	Block[ 4] 0.00000            Van der Waals: 0.00000            Coulomb: 0.00000            [K]
	------------------------------------------------------------------------------
	Average   0.00000            Van der Waals: 0.000000           Coulomb: 0.00000            [K]
	      +/- 0.00000                       +/- 0.000000                +/- 0.00000            [K]

Average Adsorbate-Cation energy:
================================
	Block[ 0] 0.00000            Van der Waals: 0.00000            Coulomb: 0.00000            [K]
	Block[ 1] 0.00000            Van der Waals: 0.00000            Coulomb: 0.00000            [K]
	Block[ 2] 0.00000            Van der Waals: 0.00000            Coulomb: 0.00000            [K]
	Block[ 3] 0.00000            Van der Waals: 0.00000            Coulomb: 0.00000            [K]
	Block[ 4] 0.00000            Van der Waals: 0.00000            Coulomb: 0.00000            [K]
	------------------------------------------------------------------------------
	Average   0.00000            Van der Waals: 0.000000           Coulomb: 0.00000            [K]
	      +/- 0.00000                       +/- 0.000000                +/- 0.00000            [K]

Host polarization energy:
=======================
	Block[ 0]            0.00000 [K]
	Block[ 1]            0.00000 [K]
	Block[ 2]            0.00000 [K]
	Block[ 3]            0.00000 [K]
	Block[ 4]            0.00000 [K]
	------------------------------------------------------------------------------
	Average              0.00000 [K] +/-            0.00000 [K]

Adsorbate polarization energy:
=======================
	Block[ 0]            0.00000 [K]
	Block[ 1]            0.00000 [K]
	Block[ 2]            0.00000 [K]
	Block[ 3]            0.00000 [K]
	Block[ 4]            0.00000 [K]
	------------------------------------------------------------------------------
	Average              0.00000 [K] +/-            0.00000 [K]

Cation polarization energy:
=======================
	Block[ 0]            0.00000 [K]
	Block[ 1]            0.00000 [K]
	Block[ 2]            0.00000 [K]
	Block[ 3]            0.00000 [K]
	Block[ 4]            0.00000 [K]
	------------------------------------------------------------------------------
	Average              0.00000 [K] +/-            0.00000 [K]

Host back-polarization energy:
=======================
	Block[ 0]            0.00000 [K]
	Block[ 1]            0.00000 [K]
	Block[ 2]            0.00000 [K]
	Block[ 3]            0.00000 [K]
	Block[ 4]            0.00000 [K]
	------------------------------------------------------------------------------
	Average              0.00000 [K] +/-            0.00000 [K]

Adsorbate back-polarization energy:
=======================
	Block[ 0]            0.00000 [K]
	Block[ 1]            0.00000 [K]
	Block[ 2]            0.00000 [K]
	Block[ 3]            0.00000 [K]
	Block[ 4]            0.00000 [K]
	------------------------------------------------------------------------------
	Average              0.00000 [K] +/-            0.00000 [K]

Cation back-polarization energy:
=======================
	Block[ 0]            0.00000 [K]
	Block[ 1]            0.00000 [K]
	Block[ 2]            0.00000 [K]
	Block[ 3]            0.00000 [K]
	Block[ 4]            0.00000 [K]
	------------------------------------------------------------------------------
	Average              0.00000 [K] +/-            0.00000 [K]

Tail-correction energy:
=======================
	Block[ 0]        -7126.00126 [K]
	Block[ 1]        -7166.65566 [K]
	Block[ 2]        -7172.74781 [K]
	Block[ 3]        -7188.93061 [K]
	Block[ 4]        -7292.78900 [K]
	------------------------------------------------------------------------------
	Average          -7189.42487 [K] +/-          111.36787 [K]

Distance-constraints energy:
=======================
	Block[ 0]            0.00000 [K]
	Block[ 1]            0.00000 [K]
	Block[ 2]            0.00000 [K]
	Block[ 3]            0.00000 [K]
	Block[ 4]            0.00000 [K]
	------------------------------------------------------------------------------
	Average              0.00000 [K] +/-            0.00000 [K]

Angle-constraints energy:
=======================
	Block[ 0]            0.00000 [K]
	Block[ 1]            0.00000 [K]
	Block[ 2]            0.00000 [K]
	Block[ 3]            0.00000 [K]
	Block[ 4]            0.00000 [K]
	------------------------------------------------------------------------------
	Average              0.00000 [K] +/-            0.00000 [K]

Dihedral-constraints energy:
=======================
	Block[ 0]            0.00000 [K]
	Block[ 1]            0.00000 [K]
	Block[ 2]            0.00000 [K]
	Block[ 3]            0.00000 [K]
	Block[ 4]            0.00000 [K]
	------------------------------------------------------------------------------
	Average              0.00000 [K] +/-            0.00000 [K]

Inversion-bend constraints energy:
=======================
	Block[ 0]            0.00000 [K]
	Block[ 1]            0.00000 [K]
	Block[ 2]            0.00000 [K]
	Block[ 3]            0.00000 [K]
	Block[ 4]            0.00000 [K]
	------------------------------------------------------------------------------
	Average              0.00000 [K] +/-            0.00000 [K]

Out-of-plane-distance constraints energy:
=======================
	Block[ 0]            0.00000 [K]
	Block[ 1]            0.00000 [K]
	Block[ 2]            0.00000 [K]
	Block[ 3]            0.00000 [K]
	Block[ 4]            0.00000 [K]
	------------------------------------------------------------------------------
	Average              0.00000 [K] +/-            0.00000 [K]

Exclusion-constraints energy:
=======================
	Block[ 0]            0.00000 [K]
	Block[ 1]            0.00000 [K]
	Block[ 2]            0.00000 [K]
	Block[ 3]            0.00000 [K]
	Block[ 4]            0.00000 [K]
	------------------------------------------------------------------------------
	Average              0.00000 [K] +/-            0.00000 [K]

Total energy:
=============
	Block[ 0]       -68090.88803 [K]
	Block[ 1]       -68256.13110 [K]
	Block[ 2]       -68861.01911 [K]
	Block[ 3]       -68418.38103 [K]
	Block[ 4]       -70405.75058 [K]
	------------------------------------------------------------------------------
	Average         -68806.43397 [K] +/-         1679.57554 [K]

Number of molecules:
====================

Component 0 [Ar]
-------------------------------------------------------------
	Block[ 0] 42.18333           [-]
	Block[ 1] 42.51667           [-]
	Block[ 2] 42.56667           [-]
	Block[ 3] 42.70000           [-]
	Block[ 4] 43.55000           [-]
	------------------------------------------------------------------------------
	Average                                     42.7033333333 +/-       0.9124813545 [-]
	Average loading absolute [molecules/unit cell]        1.5251190476 +/-       0.0325886198 [-]
	Average loading absolute [mol/kg framework]         31.7449126500 +/-       0.6783227123 [-]
	Average loading absolute [milligram/gram framework]       1268.2092603667 +/-      27.0989923572 [-]
	Average loading absolute [cm^3 (STP)/gr framework]        711.5297022461 +/-      15.2039088230 [-]
	Average loading absolute [cm^3 (STP)/cm^3 framework]        270.8301121115 +/-       5.7870758144 [-]

	Block[ 0] 42.18333           [-]
	Block[ 1] 42.51667           [-]
	Block[ 2] 42.56667           [-]
	Block[ 3] 42.70000           [-]
	Block[ 4] 43.55000           [-]
	------------------------------------------------------------------------------
	Average                                     41.7033333333 +/-       0.9124813545 [-]
	Average loading excess [molecules/unit cell]        1.4894047619 +/-       0.0325886198 [-]
	Average loading excess [mol/kg framework]         31.0015301041 +/-       0.6783227123 [-]
	Average loading excess [milligram/gram framework]       1238.5111276596 +/-      27.0989923572 [-]
	Average loading excess [cm^3 (STP)/gr framework]        694.8675438920 +/-      15.2039088230 [-]
	Average loading excess [cm^3 (STP)/cm^3 framework]        264.4879816273 +/-       5.7870758144 [-]


Average Widom Rosenbluth factor:
================================
	Block[ 0] 0 [-]
	Block[ 1] 0 [-]
	Block[ 2] 0 [-]
	Block[ 3] 0 [-]
	Block[ 4] 0 [-]
	------------------------------------------------------------------------------
	[Ar] Average Widom Rosenbluth-weight:   0 +/- 0.000000 [-]

Average Widom chemical potential:
=================================
	Block[ 0] 0 [-]
	Block[ 1] 0 [-]
	Block[ 2] 0 [-]
	Block[ 3] 0 [-]
	Block[ 4] 0 [-]
	------------------------------------------------------------------------------
	[Ar] Average chemical potential:   0 +/- 0.000000 [K]

Average Widom Ideal-gas contribution:
=====================================
	Block[ 0] 0 [-]
	Block[ 1] 0 [-]
	Block[ 2] 0 [-]
	Block[ 3] 0 [-]
	Block[ 4] 0 [-]
	------------------------------------------------------------------------------
	[Ar] Average Widom Ideal-gas chemical potential:   0 +/- 0.000000 [-]

Average Widom excess contribution:
==================================
	Block[ 0] 0 [-]
	Block[ 1] 0 [-]
	Block[ 2] 0 [-]
	Block[ 3] 0 [-]
	Block[ 4] 0 [-]
	------------------------------------------------------------------------------
	[Ar] Average Widom excess chemical potential:   0 +/- 0.000000 [-]

Average Gibbs Widom Rosenbluth factor:
======================================
	Block[ 0] 0 [-]
	Block[ 1] 0 [-]
	Block[ 2] 0 [-]
	Block[ 3] 0 [-]
	Block[ 4] 0 [-]
	------------------------------------------------------------------------------
	[Ar] Average Gibbs Widom Rosenbluth-weight:   0 +/- 0.000000 [-]

Average Gibbs Widom chemical potential:
=======================================
	Block[ 0] 0 [-]
	Block[ 1] 0 [-]
	Block[ 2] 0 [-]
	Block[ 3] 0 [-]
	Block[ 4] 0 [-]
	------------------------------------------------------------------------------
	[Ar] Average Gibbs chemical potential:   0 +/- 0.000000 [K]

Average Gibbs Widom Ideal-gas contribution:
===========================================
	Block[ 0] 0 [-]
	Block[ 1] 0 [-]
	Block[ 2] 0 [-]
	Block[ 3] 0 [-]
	Block[ 4] 0 [-]
	------------------------------------------------------------------------------
	[Ar] Average Gibbs Ideal-gas chemical potential:   0 +/- 0.000000 [-]

Average Gibbs Widom excess contribution:
===========================================
	Block[ 0] 0 [-]
	Block[ 1] 0 [-]
	Block[ 2] 0 [-]
	Block[ 3] 0 [-]
	Block[ 4] 0 [-]
	------------------------------------------------------------------------------
	[Ar] Average Gibbs excess chemical potential:   0 +/- 0.000000 [-]

Average Henry coefficient:
==========================
	Block[ 0] 0 [mol/kg/Pa]
	Block[ 1] 0 [mol/kg/Pa]
	Block[ 2] 0 [mol/kg/Pa]
	Block[ 3] 0 [mol/kg/Pa]
	Block[ 4] 0 [mol/kg/Pa]
	------------------------------------------------------------------------------
	[Ar] Average Henry coefficient:  0 +/- 0 [mol/kg/Pa]

Average adsorption energy <U_gh>_1-<U_h>_0 obtained from Widom-insertion:
(Note: the total heat of adsorption is dH=<U_gh>_1-<U_h>_0 - <U_g> - RT)
=========================================================================

Simulation finished,  0 warnings


Mon Nov 16 20:12:54 2020
Simulation finished on Monday, November 16.
The end time was 08:12 PM.

