# vtk DataFile Version 1.0
Cube
ASCII

DATASET POLYDATA
POINTS 132 float
6.387342 -0.507361 15.475146
6.387342 16.532639 15.475146
10.886346 11.706454 16.052494
11.083574 2.109512 3.972822
0.852899 9.982234 4.773039
18.072899 9.982234 4.773039
13.168659 -0.038056 15.329410
13.168659 17.001944 15.329410
11.063549 13.720914 4.782451
0.112963 6.023006 16.450446
17.332963 6.023006 16.450446
1.406577 11.312052 13.741637
18.626577 11.312052 13.741637
5.730535 10.463109 16.328329
9.032403 2.215544 16.209380
-0.482647 3.090422 15.501651
16.737353 3.090422 15.501651
7.197343 -0.006248 3.126236
7.197343 17.033752 3.126236
5.289651 13.855153 3.271402
11.342106 6.699835 14.288882
9.295462 11.273209 12.094705
7.082413 9.276043 3.346413
2.233757 5.016933 4.517187
14.181835 3.548090 3.611050
-1.588229 11.268948 16.729576
15.631771 11.268948 16.729576
14.139754 13.079198 13.530963
5.390521 0.994976 5.903064
5.390521 18.034976 5.903064
11.343931 13.752385 9.183234
8.928354 6.612823 5.164892
2.563924 0.642345 14.332298
2.563924 17.682345 14.332298
15.387876 -0.041666 5.345794
15.387876 16.998334 5.345794
9.918105 -1.496304 13.228808
9.918105 15.543696 13.228808
4.574217 5.422220 12.329972
6.750312 6.131143 16.253850
15.374222 7.270694 3.307278
4.682875 2.945745 3.195837
2.372749 3.323454 8.301985
7.932185 2.401022 9.813490
5.732423 12.012958 13.513382
14.526139 12.174726 3.615600
2.051369 8.750581 11.541015
7.022324 -1.628714 10.053848
7.022324 15.411286 10.053848
13.483382 9.539283 12.632537
13.420923 7.738743 7.899524
4.948724 8.804062 10.548397
5.812404 12.565664 6.369279
13.168640 1.958899 12.221381
8.750098 12.423804 2.879203
13.397284 -1.154503 10.043950
13.397284 15.885497 10.043950
1.911268 4.437574 13.783845
-1.111287 -1.001550 13.429963
-1.111287 16.038450 13.429963
16.108713 -1.001550 13.429963
16.108713 16.038450 13.429963
13.306221 4.647090 16.282154
8.393148 9.455281 8.639387
4.541573 7.609443 5.086440
0.044453 14.671363 8.304312
17.264453 14.671363 8.304312
-1.153976 13.623555 10.653592
16.066024 13.623555 10.653592
9.295162 2.970571 12.849454
6.362738 5.309173 9.572494
11.765819 6.531591 4.845058
13.562194 5.132069 10.504346
0.287330 15.070164 3.972886
17.507330 15.070164 3.972886
-0.843909 7.276145 6.905129
16.376091 7.276145 6.905129
2.787036 -0.266777 8.184700
2.787036 16.773223 8.184700
3.080281 13.661125 15.978853
3.205092 0.229017 2.767423
3.205092 17.269017 2.767423
-0.091572 4.299682 6.524960
17.128428 4.299682 6.524960
0.206666 1.868200 10.428771
17.426666 1.868200 10.428771
12.510971 14.286438 16.849013
1.526294 11.679608 8.522323
18.746294 11.679608 8.522323
9.802967 14.027718 15.368378
10.565401 1.312235 10.660319
10.565401 18.352235 10.660319
9.202606 8.490080 16.957890
0.296692 12.940790 16.369020
17.516692 12.940790 16.369020
-1.008264 8.721636 14.900452
16.211736 8.721636 14.900452
3.073953 1.305403 11.673266
3.073953 18.345403 11.673266
3.563072 1.234911 17.431711
3.563072 18.274911 17.431711
-0.960877 11.716908 6.748767
16.259123 11.716908 6.748767
12.636814 1.174695 5.711390
12.636814 18.214695 5.711390
1.500122 15.024359 6.168972
18.720122 15.024359 6.168972
9.741297 7.062355 10.567232
0.845756 6.293845 10.051797
18.065756 6.293845 10.051797
6.114186 2.190670 14.348492
8.391658 8.333322 14.534896
11.155399 10.891741 3.802725
11.439073 9.613077 11.016908
11.317697 2.327097 8.044769
-1.038441 11.100797 9.493381
16.181559 11.100797 9.493381
3.228108 15.039745 11.044064
8.363371 -0.089384 7.377564
8.363371 16.950616 7.377564
14.768922 2.570079 17.341723
9.117662 4.207440 8.130903
5.802449 9.693838 6.531144
2.652960 7.304408 15.190612
14.632080 7.010220 16.970984
8.245532 13.540395 5.881669
11.304672 -0.467194 7.751846
11.304672 16.572806 7.751846
12.251483 10.351606 8.217595
12.234883 -0.425796 3.538232
12.234883 16.614204 3.538232
5.403695 6.289896 7.105419
LINES 0 0
POINT_DATA 132
SCALARS my_scalars float
LOOKUP_TABLE default
1.88
1.88
1.88
1.88
1.88
1.88
1.88
1.88
1.88
1.88
1.88
1.88
1.88
1.88
1.88
1.88
1.88
1.88
1.88
1.88
1.88
1.88
1.88
1.88
1.88
1.88
1.88
1.88
1.88
1.88
1.88
1.88
1.88
1.88
1.88
1.88
1.88
1.88
1.88
1.88
1.88
1.88
1.88
1.88
1.88
1.88
1.88
1.88
1.88
1.88
1.88
1.88
1.88
1.88
1.88
1.88
1.88
1.88
1.88
1.88
1.88
1.88
1.88
1.88
1.88
1.88
1.88
1.88
1.88
1.88
1.88
1.88
1.88
1.88
1.88
1.88
1.88
1.88
1.88
1.88
1.88
1.88
1.88
1.88
1.88
1.88
1.88
1.88
1.88
1.88
1.88
1.88
1.88
1.88
1.88
1.88
1.88
1.88
1.88
1.88
1.88
1.88
1.88
1.88
1.88
1.88
1.88
1.88
1.88
1.88
1.88
1.88
1.88
1.88
1.88
1.88
1.88
1.88
1.88
1.88
1.88
1.88
1.88
1.88
1.88
1.88
1.88
1.88
1.88
1.88
1.88
1.88
VECTORS vectors float
0.4375 0 0
0.4375 0 0
0.4375 0 0
0.4375 0 0
0.4375 0 0
0.4375 0 0
0.4375 0 0
0.4375 0 0
0.4375 0 0
0.4375 0 0
0.4375 0 0
0.4375 0 0
0.4375 0 0
0.4375 0 0
0.4375 0 0
0.4375 0 0
0.4375 0 0
0.4375 0 0
0.4375 0 0
0.4375 0 0
0.4375 0 0
0.4375 0 0
0.4375 0 0
0.4375 0 0
0.4375 0 0
0.4375 0 0
0.4375 0 0
0.4375 0 0
0.4375 0 0
0.4375 0 0
0.4375 0 0
0.4375 0 0
0.4375 0 0
0.4375 0 0
0.4375 0 0
0.4375 0 0
0.4375 0 0
0.4375 0 0
0.4375 0 0
0.4375 0 0
0.4375 0 0
0.4375 0 0
0.4375 0 0
0.4375 0 0
0.4375 0 0
0.4375 0 0
0.4375 0 0
0.4375 0 0
0.4375 0 0
0.4375 0 0
0.4375 0 0
0.4375 0 0
0.4375 0 0
0.4375 0 0
0.4375 0 0
0.4375 0 0
0.4375 0 0
0.4375 0 0
0.4375 0 0
0.4375 0 0
0.4375 0 0
0.4375 0 0
0.4375 0 0
0.4375 0 0
0.4375 0 0
0.4375 0 0
0.4375 0 0
0.4375 0 0
0.4375 0 0
0.4375 0 0
0.4375 0 0
0.4375 0 0
0.4375 0 0
0.4375 0 0
0.4375 0 0
0.4375 0 0
0.4375 0 0
0.4375 0 0
0.4375 0 0
0.4375 0 0
0.4375 0 0
0.4375 0 0
0.4375 0 0
0.4375 0 0
0.4375 0 0
0.4375 0 0
0.4375 0 0
0.4375 0 0
0.4375 0 0
0.4375 0 0
0.4375 0 0
0.4375 0 0
0.4375 0 0
0.4375 0 0
0.4375 0 0
0.4375 0 0
0.4375 0 0
0.4375 0 0
0.4375 0 0
0.4375 0 0
0.4375 0 0
0.4375 0 0
0.4375 0 0
0.4375 0 0
0.4375 0 0
0.4375 0 0
0.4375 0 0
0.4375 0 0
0.4375 0 0
0.4375 0 0
0.4375 0 0
0.4375 0 0
0.4375 0 0
0.4375 0 0
0.4375 0 0
0.4375 0 0
0.4375 0 0
0.4375 0 0
0.4375 0 0
0.4375 0 0
0.4375 0 0
0.4375 0 0
0.4375 0 0
0.4375 0 0
0.4375 0 0
0.4375 0 0
0.4375 0 0
0.4375 0 0
0.4375 0 0
0.4375 0 0
0.4375 0 0
0.4375 0 0
