Compiler and run-time data
===========================================================================
RASPA 2.0.37
Compiled as a 64-bits application
Compiler: gcc 9.3.0
Compile Date = Mar 18 2020, Compile Time = 13:46:53

Mon Nov 16 20:12:53 2020
Simulation started on Monday, November 16.
The start time was 08:12 PM.

Cpu data:    x86_64
Cpu Model:   MacBookPro11,4
Host name:   B126028.local
OS release:  19.6.0
OS type:     Darwin
OS version:  19H15


Simulation
===========================================================================
Dimensions: 3
Random number seed: 1605553973
RASPA directory set to: /Users/leopold/Personal/Programmierung/qm-codes/RASPA2/src/.libs
String appended to output-files: 
Number of cycles: 300
Number of initializing cycles: 300
Number of equilibration cycles: 0
Print every: 30
Rectangular boundary condition applied
Timestep: 0.000500
	Degrees of freedom:                        279
	Translational Degrees of freedom:          279
	Rotational Degrees of freedom:             0
	Degrees of freedom Framework:              0


Mutual consistent basic set of units:
======================================
Unit of temperature: Kelvin
Unit of length:      1e-10 [m]
Unit of time:        1e-12 [s]
Unit of mass:        1.66054e-27 [kg]
Unit of charge:      1.60218e-19 [C/particle]

Derived units and their conversion factors:
===========================================
Unit of energy:              1.66054e-23 [J]
Unit of force:               1.66054e-13 [N]
Unit of pressure:            1.66054e+07 [Pa]
Unit of velocity:            100 [m/s]
Unit of acceleration:        1e-08 [m^2/s]
Unit of diffusion:           1e-08 [m^2/s]
Unit of dipole moment:       1.60218e-29 [C.m]
Unit of electric potential:  0.000103643 [V]
Unit of electric field:      1.03643e+06 [V]
Unit of polarizability:      1.54587e-35 [-]
Unit of Coulomb potential:   167101.0800066561  [K]
Unit of dielectric constant: 0.0000154587       [s^2 C^2/(kg m^3)]
Unit of wave vectors:        5.3088374589       [cm^1]
Boltzmann constant:          0.8314464919       [-]

Internal conversion factors:
===========================================
Energy to Kelvin:                                    1.2027242847
FH correction factor                                 2.0211930949
Heat capacity conversion factor:                    10.0000088723
From Debye to internal units:                        4.8032067991
Isothermal compressibility conversion factor:        0.0000000602

Energy conversion factors:
===========================================
From mdyne/A to kcal/mol/A^2:           143.933
From mdyne/A to kj/mol/A^2:             602.214
From mdyne/A to K/A^2:                  72429.7
From mdyne A/rad^2 to kcal/mol/deg^2:   0.0438444


Properties computed
===========================================================================
Movies: no
Radial Distribution Function: no
Number of molecules GCMC histogram: no
Histogram of the molecule positions: no
Free energy profiles: no
Pore Size Distribution Function: no
End-to-end distance: no
Histogram of the energy of the system: no
Compute thermodynamic factors: no
Framework spacing histograms: no
Residence times histograms: no
Distance histograms: no
Bend Angle histograms: no
Dihedral angle histograms: no
Angle between planes histograms: no
Molecule properties: no
Infra-red spectra: no
Mean-squared displacement using modified order-N algorithm: no
Velocity-autocorrelation function modified order-N algorithm: no
Rotational velocity-autocorrelation function modified order-N algorithm: no
Molecular orientation-autocorrelation function modified order-N algorithm: no
Bond orientation-autocorrelation function modified order-N algorithm: no
Mean-squared displacement (conventional algorithm): no
Velocity-autocorrelation function (conventional algorithm): no
3D density grid for adsorbates: no
Compute cation an/or adsorption sites: no
dcTST snapshots: no
Compute pressure and stress: no


VTK
===========================================================================
VTK fractional-range position framework atoms: [-0.001000,1.001000] [-0.001000,1.001000] [-0.001000,1.001000]
VTK fractional-range position framework bonds: [-0.151000,1.151000] [-0.151000,1.151000] [-0.151000,1.151000]
VTK fractional-range com-position adsorbate molecules: [-0.101000,1.101000] [-0.101000,1.101000] [-0.101000,1.101000]
VTK fractional-range com-position cation molecules: [-0.101000,1.101000] [-0.101000,1.101000] [-0.101000,1.101000]
	3D free energy grid made for the full simulation-cell


Thermo/Baro-stat NHC parameters
===========================================================================
External temperature: 87 [K]
Beta: 0.0138244 [energy unit]
External Pressure: 10000 [Pa]


Thermostat chain-length: 3
Timescale parameter for thermostat: 0.150000 [ps]
Barostat chain-length:   3
Timescale parameter for barostat:   0.150000 [ps]

Number of Yoshida-Suzuki decomposition steps: 5
Number of respa steps: 5


Method and settings for electrostatics
===============================================================================
Dielectric constant of the medium : 1.000000
Charge from charge-equilibration: no
No electrostatics


CFC-RXMC parameters
===========================================================================
Number of reactions: 0


Rattle parameters
===========================================================================
Distance constraint type: r^2-r^2_0
Bend angle constraint type: theta-theta_0
Dihedral angle constraint type: phi-phi_0
Inversion-bend angle constraint type: chi-chi_0
Out-of-plane distance constraint type: r-r_0


Spectra parameters
===========================================================================
Compute normal modes: no


Minimization parameters
===========================================================================
Generalized coordinates are: Cartesian center-of-mass, elements of the orientational matrix p1,p2,p3 and strain
Potential derivatives are evaluated: analytically
Translation of the system is removed from the generalized Hessian: no
Rotation of the system is removed from the generalized Hessian: no
Maximum step-length: 0.3
Convergence factor: 1
Maximum number of minimization steps: 10000
Use gradients in the line-minimizations: yes
RMS gradient tolerance: 1e-06
Maximum gradient tolerance: 1e-06

Distance constraints: 0
Angle constraints: 0
Dihedral constraints: 0

Improper dihedral constraints: 0

Inversion-bend constraints: 0

Out-of-plane constraints: 0

Harmonic distance constraints: 0
Harmonic angle constraints: 0
Harmonic dihedral constraints: 0

Dihedral mid-point measurements: 0

All framework atoms are fixed

Fixed adsorbate atoms:  
Fixed adsorbate groups (center-of-mass):  
Fixed adsorbate groups (orientation):  

Fixed cation atoms:  
Fixed cation groups (center-of-mass):  
Fixed cation groups (orientation):  


dcTST parameters
===========================================================================
Free energy profiles computed: no
Free energy profiles written every 5000 cycles
Free energy mapping: mapped to a,b,c-coordinates
BarrierPosition:       0.0000000000       0.0000000000       0.0000000000
BarrierNormal:         0.0000000000       0.0000000000       0.0000000000
Start with a molecule on top of the barrier: no
Maximum distance to barrier (e.g. distance to minumum free energy):       0.0000000000 [A]
Maximum trajectory time:      10.0000000000 [ps]
Each configuration is used with 5 different initial velocities


Cbmc parameters
===========================================================================
Biasing method: using only the VDW part
Number of trial positions:                                       10
Number of trial positions (reinsertion):                         10
Number of trial positions (partial reinsertion):                 10
Number of trial positions (identity-change):                     10
Number of trial positions (Gibbs particle transfer):             10
Number of trial positions (insertion/deletion):                  10
Number of trial positions (Widom insertion):                     10
Number of trial positions coupled Torsion-selection:             100
Number of trial positions first bead:                            10
Number of trial positions first bead (reinsertion):              10
Number of trial positions first bead (partial reinsertion):      10
Number of trial positions first bead (identity-change):          10
Number of trial positions first bead (Gibbs particle transfer):  10
Number of trial positions first bead (insertion/deletion):       10
Number of trial positions first bead (Widom insertion):          10
Number of trial moves per open bead:                             150
Target acceptance ratio small-mc scheme:                         0.400000
Energy overlap criteria:                                         1e+07
Minimal Rosenbluth factor:                                       1e-150


Pseudo atoms: 3
===========================================================================
Pseudo Atom[   0] Name UNIT     Oxidation:          Element: H    pdb-name: H    Scat. Types:   1   1 Mass=1.000000000  B-factor:0.000   
                 Charge=1.000000000          Polarization=0.000000000  [A^3] (considered a charged atom and no polarization)  Interactions: yes
                 Anisotropic factor:    0.000 [-] (Absolute), Radius:    1.000 [A], Framework-atom:  no
Pseudo Atom[   1] Name Ar_gas   Oxidation: +0       Element: Ar   pdb-name: Ar   Scat. Types:  19  18 Mass=39.950000000 B-factor:1.000   
                 Charge=0.000000000          Polarization=0.000000000  [A^3] (considered a chargeless atom and no polarization)  Interactions: yes
                 Anisotropic factor:    0.000 [-] (Relative), Radius:    1.000 [A], Framework-atom:  no
Pseudo Atom[   2] Name C        Oxidation:          Element: C    pdb-name: C    Scat. Types:   7   6 Mass=12.010735897 B-factor:0.000   
                 Charge=0.000000000  (-na-)  Polarization=1.760000000  [A^3] (considered a chargeless atom and no polarization)  Interactions: yes
                 Anisotropic factor:    0.000 [-] (Absolute), Radius:    0.750 [A], Framework-atom: yes (charge definition not found)


Forcefield: Local
===========================================================================
Minimal distance: 1
CutOff VDW : 8.000000 (64.000000)
CutOff VDW switching on: 7.200000 (51.840000)
CutOff charge-charge : 12.000000 (144.000000)
CutOff charge-charge switching on: 7.800000 (60.840000)
CutOff charge-bonddipole : 12.000000 (144.000000)
CutOff charge-bondipole switching on: 8.400000 (70.560000)
CutOff bonddipole-bonddipole : 12.000000 (144.000000)
CutOff bonddipole-bondipole switching on: 9.000000 (81.000000)
Polarization is neglected
TailCorrections are used
All potentials are unshifted !!!!!!

General mixing rule: Lorentz-Berthelot mixing rules are used FIRST for cross terms
0 cross terms are overwritten using the individual mixing rules from the file 'force_field_mixing_rules.def'
and then 0 terms are overwritten using the specific interactions from the file 'force_field.def'

The force field and all the interactions:
 Ar_gas -  Ar_gas [LENNARD_JONES] p_0/k_B: 119.80000 [K], p_1: 3.40000 [A], shift/k_B:   0.00000000 [K], tailcorrection: yes
 Ar_gas -       C [LENNARD_JONES] p_0/k_B:  75.72159 [K], p_1: 3.43649 [A], shift/k_B:   0.00000000 [K], tailcorrection: yes
      C -       C [LENNARD_JONES] p_0/k_B:  47.86110 [K], p_1: 3.47299 [A], shift/k_B:   0.00000000 [K], tailcorrection: yes


MoleculeDefinitions:
===========================================================================
Component 0 [Ar] (Adsorbate molecule)

	MoleculeDefinitions: Local
	Component contains no atoms with charge
	Component contains no atoms with point dipoles (polarization)
	Component has a net charge of 0.000000

	Ideal chain Rosenbluth weight: 1
	Ideal chain total energy: 0.000000

	Critical temparure [K]: 150.860000
	Critical pressure [Pa]: 4898000.000000
	Acentric factor [-]: 0.000000

	RXMC partition factor ln(q/V) [ln(A^(-3))]:       0.0000000000

	Vapour=stable, Liquid=metastable

	MolFraction:           1.0000000000 [-]
	Compressibility:       0.9969321595 [-]

	Density of the bulk fluid phase:       0.5539845079 [kg/m^3]

	Binary mixture EOS parameters:  (0): 0.000000

	Amount of excess molecules:       0.0410733761 [-]

	Conversion factor molecules/unit cell -> mol/kg:      20.8147112840 [-]
	Conversion factor molecules/unit cell -> mg/g:     831.5477157974 [-]
	Conversion factor molecules/unit cell -> cm^3 STP/gr:     466.5404339136 [-]
	Conversion factor molecules/unit cell -> cm^3 STP/cm^3:     177.5796535584 [-]
	Conversion factor mol/kg -> cm^3 STP/gr:      22.4139757476 [-]
	Conversion factor mol/kg -> cm^3 STP/cm^3:       8.5314492781 [-]

	Partial pressure:     10000.00000000000000 [Pa]
	                         75.00000000000000 [Torr]
	                          0.10000000000000 [bar]
	                          0.09869232667160 [atm]

	Fugacity coefficient:       0.9969406027 [-]

	Partial fugacity:      9969.40602713929911 [Pa]
	                         74.77054520354474 [Torr]
	                          0.09969406027139 [bar]
	                          0.09839038763523 [atm]

	Molecule contains 1 number of atoms
		atom:    0  is of type:    1 [    Ar_gas] (group: 0)

	Molecule contains 0 chirality centers

	Molecule contains 1 number of groups

		group: 0 containing: 1 elements
		-------------------------------------------------
		the group represents a point particle
		Mass: 39.950000 [a.u.]
		Mass: 11.304027 [kg/m^3]

		Rotational Degrees of freedom: 0
		Diagonalized inertia vector:       0.0000000000
		                                   0.0000000000
		                                   0.0000000000
		number of atoms: 1
			element: 0 atom: 0 [    Ar_gas] Charge:  0.000000 Anisotropy: 0.000000 Position:  0.000000 -0.000000  0.000000 Connectivity: 0 ()
		number of permanent dipoles: 0
		number of polarizabilities: 0

		Dipole:           0.0000000000 [D]
		Quadrupole:       0.0000000000       0.0000000000       0.0000000000 [D Angstrom]
		Quadrupole tensor [D Angstrom]
				       0.0000000000       0.0000000000       0.0000000000
				       0.0000000000       0.0000000000       0.0000000000
				       0.0000000000       0.0000000000       0.0000000000

	Starting bead for growth               : 0

	Degrees of freedom                     : 0
	Translational degrees of freedom       : 0
	Rotational degrees of freedom          : 0
	Vibrational degrees of freedom         : 0
	Constraint degrees of freedom          : 0

	Number of atoms                        : 1

	Number of constraint bonds             : 0
	Number of constraint bends             : 0
	Number of constraint inversion bends   : 0
	Number of constraint torsions          : 0
	Number of constraint improper torsions : 0
	Number of constraint improper torsions : 0

	Number of bonds                        : 0
	Number of Urey-Bradleys                : 0
	Number of bends                        : 0
	Number of inversion bends              : 0
	Number of torsions                     : 0
	Number of improper torsions            : 0
	Number of improper torsions            : 0

	Number of bond/bond cross terms        : 0
	Number of bond/bend cross terms        : 0
	Number of bend/bend cross terms        : 0
	Number of stretch/torsion cross terms  : 0
	Number of bend/torsion cross terms     : 0

	Number of charges                      : 0
	Number of bond-dipoles                 : 0

	Number of intra Van der Waals                             : 0
	Number of intra charge-charge Coulomb                     : 0
	Number of intra charge-bonddipole Coulomb                 : 0
	Number of intra bonddipole-bonddipole Coulomb             : 0

	Number of excluded intra charge-charge Coulomb                     : 0
	Number of excluded intra charge-bonddipole Coulomb                 : 0
	Number of excluded intra bonddipole-bonddipole Coulomb             : 0

	Number of cbmc-config moves                               : 0

	Particle Moves:             
		ProbabilityTranslationMove:                  50.000000
			TranslationDirection:      XYZ
		Percentage of random translation moves:            0.000000
		Percentage of rotation moves:                      0.000000
		Percentage of random rotation moves:               0.000000
		Percentage of partial reinsertion moves:           0.000000
		Percentage of reinsertion moves:                   25.000000
		Percentage of reinsertion-in-place moves:          0.000000
		Percentage of reinsertion-in-plane moves:          0.000000
		Percentage of identity-change moves:               0.000000
		Percentage of swap (insert/delete) moves:          25.000000
		Percentage of CF swap lambda moves:                0.000000
		Percentage of CB/CFMC swap lambda moves:           0.000000
		Percentage of Widom insertion moves:               0.000000
		Percentage of CF-Widom insertion moves:            0.000000
		Percentage of Gibbs Widom insertion moves:         0.000000
		Percentage of surface-area moves:                  0.000000
		Percentage of Gibbs particle-transfer moves:       0.000000
		Percentage of Gibbs identity-change moves:         0.000000
		Percentage of CF Gibbs lambda-transfer moves:      0.000000
		Percentage of CB/CFMC Gibbs lambda-transfer moves: 0.000000
		Percentage of exchange frac./int. particle moves:  0.000000
		Percentage of fractional mol. to other box moves:  0.000000
		Percentage of lambda-change moves:                 0.000000
		Percentage of fractional to integer moves:         0.000000

	System Moves:
		Percentage of parallel-tempering moves:            0.000000
		Percentage of hyper-parallel-tempering moves:      0.000000
		Percentage of parallel-mol-fraction moves:         0.000000
			   Component A: 0 B: 1
		Percentage of chiral inversion moves:              0.000000
		Percentage of Hybrid-NVE moves:                    0.000000
		Percentage of Hybrid-NPH moves:                    0.000000
		Percentage of Hybrid-NPHPR moves:                  0.000000
		Percentage of volume-change moves:                 0.000000
		Percentage of box-shape-change moves:              0.000000
		Percentage of Gibbs volume-change moves:           0.000000
		Percentage of framework-change moves:              0.000000
		Percentage of framework-shift moves:               0.000000
		Percentage of reactive MC moves:                   0.000000

	Moves are restricted: No
	No biased sampling used for this component


	number of identity-config changes: 1
	--------------------------------------------
	nr fixed 1: 0 

	Number of pockets blocked in a unitcell: 0
		Pockets are NOT blocked for this component



Framework Status
===========================================================================
Lowenstein's rule obeyed by framework
	Framework is modelled as: rigid

	Number of charges:                               0
	Number of bonddipoles:                           0


System Properties
===========================================================================
Unit cell size: 2.460000 4.260000 20.000000
Cell angles (radians)  alpha: 1.570796 beta: 1.570796 gamma: 1.570796
Cell angles (degrees)  alpha: 90.000000 beta: 90.000000 gamma: 90.000000
Number of unitcells [a]: 7
Number of unitcells [b]: 4
Number of unitcells [c]: 1

RECTANGULAR Boundary conditions: alpha=beta=gamma=90 degrees

Cartesian axis A is collinear with crystallographic axis a
Cartesian axis B is collinear with (axb)xA
Cartesian axis C is collinear with (axb)

lengths of cell vectors:
 17.22000  17.04000  20.00000
cosines of cell angles:
  0.00000   0.00000   0.00000
perpendicular cell widths:
 17.22000  17.04000  20.00000
volume of the cell:  5868.575999999999 (A^3)

Orthogonalization matrix Box
Transforms fractional coordinates abc into orthonormal Cartesian coordinates xyz
Deorthogonalization matrix InverseBox
Transforms orthonormal Cartesian coordinates xyz into fractional coordinates xyz

Box[0]:
	   17.220000000000     0.000000000000     0.000000000000
	    0.000000000000    17.040000000000     0.000000000000
	    0.000000000000     0.000000000000    20.000000000000

Inverse box[0]:
	    0.058072009292     0.000000000000     0.000000000000
	    0.000000000000     0.058685446009     0.000000000000
	    0.000000000000     0.000000000000     0.050000000000


Unitcell box[0]:
	    2.460000000000     0.000000000000     0.000000000000
	    0.000000000000     4.260000000000     0.000000000000
	    0.000000000000     0.000000000000    20.000000000000

Unitcell inverse box[0]:
	    0.406504065041    -0.000000000000    -0.000000000000
	    0.000000000000     0.234741784038    -0.000000000000
	    0.000000000000     0.000000000000     0.050000000000

lengths of cell vectors (inverse box):
  0.05807   0.05869   0.05000
cosines of cell angles (inverse box):
 -0.00000  -0.00000  -0.00000
perpendicular cell widths (inverse):
  0.05807   0.05869   0.05000
volume of the cell:  5868.575999999999 (A^3)

No replicas are used
Framework is simulated as 'rigid'
Number of framework atoms: 112
Number of framework atoms in the unit cell: 4
Framework Mass:  1345.202420437623 [g/mol]
Framework Density:   380.630789208962 [kg/m^3]    2.6272178403598 [cm^3/g]
Helium void fraction:    0.83810000
Available pore volume: 4918.45354560 [A^3]    2.20187127 [cm^3/g]
Conversion factor from molecule/unit cell -> kmol/m^3: 0.282954, kmol/m^3 accesible pore volume: 0.337614

Number Of Frameworks (per system): 1
----------------------------------------------------------------------
Framework name: framework_1
Space group: 1
	Identifier: 1
	short international Hermann-Mauguin symbol: P 1
	long international Hermann-Mauguin symbol: P 1
	Hall symbol: P 1
	Number of lattice translations: 1 [ (0,0,0) ]
	acentric/centric: acentric
	chiral: no
	enantiomorphic: no
	number of operators: 1
		'x,y,z'
Framework is simulated as 'rigid'
Shift: 0.000000 0.000000 0.000000
Number of framework atoms: 112
Number of asymmetric atoms: 4
Number of free framework atoms: 0
Number of fixed framework atoms: 112
Number of framework atoms in the unit cell: 4
Framework Mass:  1345.202420437623 [g/mol]
Framework Density:   380.630789208962 [kg/m^3]
Framework has net charge: 0.000000
         largest charge : 0.000000
         smallest charge: 0.000000

Using FULL Host-guest interaction calculation (for testing purposes)

Current Atom Status
===========================================================================
Number of framework atoms        : 112
Number of cations molecules      : 0
Number of adsorbate molecules    : 93
Component    0 :   93 molecules
Pseudo Atoms    0 [    UNIT]:    0 atoms
Pseudo Atoms    1 [  Ar_gas]:   93 atoms
Pseudo Atoms    2 [       C]:  112 atoms


Current (initial full energy) Energy Status
===========================================================================

Internal energy:
Host stretch energy:                                            0.00000000
Host UreyBradley energy:                                        0.00000000
Host bend energy:                                               0.00000000
Host inversion-bend energy:                                     0.00000000
Host torsion energy:                                            0.00000000
Host improper torsion energy:                                   0.00000000
Host out-of-plane energy:                                       0.00000000
Host stretch/stretch energy:                                    0.00000000
Host bend/bend energy:                                          0.00000000
Host stretch/bend energy:                                       0.00000000
Host stretch/torsion energy:                                    0.00000000
Host bend/torsion energy:                                       0.00000000

Adsorbate stretch energy:                                       0.00000000
Adsorbate UreyBradley energy:                                   0.00000000
Adsorbate bend energy:                                          0.00000000
Adsorbate inversion-bend energy:                                0.00000000
Adsorbate torsion energy:                                       0.00000000
Adsorbate improper torsion energy:                              0.00000000
Adsorbate out-of-plane energy:                                  0.00000000
Adsorbate stretch/stretch energy:                               0.00000000
Adsorbate bend/bend energy:                                     0.00000000
Adsorbate stretch/bend energy:                                  0.00000000
Adsorbate stretch/torsion energy:                               0.00000000
Adsorbate bend/torsion energy:                                  0.00000000
Adsorbate intra VDW energy:                                     0.00000000
Adsorbate intra charge-charge Coulomb energy:                   0.00000000
Adsorbate intra charge-bonddipole Coulomb energy:               0.00000000
Adsorbate intra bonddipole-bonddipole Coulomb energy:           0.00000000

Cation stretch energy:                                          0.00000000
Cation UreyBradley energy:                                      0.00000000
Cation bend energy:                                             0.00000000
Cation inversion-bend energy:                                   0.00000000
Cation torsion energy:                                          0.00000000
Cation improper torsion energy:                                 0.00000000
Cation out-of-plane energy:                                     0.00000000
Cation stretch/stretch energy:                                  0.00000000
Cation bend/bend energy:                                        0.00000000
Cation stretch/bend energy:                                     0.00000000
Cation stretch/torsion energy:                                  0.00000000
Cation bend/torsion energy:                                     0.00000000
Cation intra VDW energy:                                        0.00000000
Cation intra charge-charge Coulomb energy:                      0.00000000
Cation intra charge-bonddipole Coulomb energy:                  0.00000000
Cation intra bonddipole-bonddipole Coulomb energy:              0.00000000

Host/Host energy:                                             0.00000000
	Host/Host VDW energy:                                         0.00000000
	Host/Host Coulomb energy:                                     0.00000000
	Host/Host charge-charge Real energy:                          0.00000000
	Host/Host charge-charge Fourier energy:                       0.00000000
	Host/Host charge-bonddipole Real energy:                      0.00000000
	Host/Host charge-bonddipole Fourier energy:                   0.00000000
	Host/Host bondipole-bonddipole Real energy:                   0.00000000
	Host/Host bondipole-bonddipole Fourier energy:                0.00000000

Host/Adsorbate energy:                                   -53626.74560898
	Host/Adsorbate VDW energy:                               -53626.74560898
	Host/Adsorbate Coulomb energy:                                0.00000000
	Host/Adsorbate charge-charge Real energy:                     0.00000000
	Host/Adsorbate charge-charge Fourier energy:                  0.00000000
	Host/Adsorbate charge-bonddipole Real energy:                 0.00000000
	Host/Adsorbate charge-bonddipole Fourier energy:              0.00000000
	Host/Adsorbate bondipole-bonddipole Real energy:              0.00000000
	Host/Adsorbate bondipole-bonddipole Fourier energy:           0.00000000

Host/Cation energy:                                           0.00000000
	Host/Cation VDW energy:                                       0.00000000
	Host/Cation Coulomb energy:                                   0.00000000
	Host/Cation charge-charge Real energy:                        0.00000000
	Host/Cation charge-charge Fourier energy:                     0.00000000
	Host/Cation charge-bonddipole Real energy:                    0.00000000
	Host/Cation charge-bonddipole Fourier energy:                 0.00000000
	Host/Cation bondipole-bonddipole Real energy:                 0.00000000
	Host/Cation bondipole-bonddipole Fourier energy:              0.00000000

Adsorbate/Adsorbate energy:                                   -46359.05073798
	Adsorbate/Adsorbate VDW energy:                               -46359.05073798
	Adsorbate/Adsorbate Coulomb energy:                                0.00000000
	Adsorbate/Adsorbate charge-charge Real energy:                     0.00000000
	Adsorbate/Adsorbate charge-charge Fourier energy:                  0.00000000
	Adsorbate/Adsorbate charge-bonddipole Real energy:                 0.00000000
	Adsorbate/Adsorbate charge-bonddipole Fourier energy:              0.00000000
	Adsorbate/Adsorbate bondipole-bonddipole Real energy:              0.00000000
	Adsorbate/Adsorbate bondipole-bonddipole Fourier energy:           0.00000000

Adsorbate/Cation energy:                                           0.00000000
	Adsorbate/Cation VDW energy:                                       0.00000000
	Adsorbate/Cation Coulomb energy:                                   0.00000000
	Adsorbate/Cation charge-charge Real energy:                        0.00000000
	Adsorbate/Cation charge-charge Fourier energy:                     0.00000000
	Adsorbate/Cation charge-bonddipole Real energy:                    0.00000000
	Adsorbate/Cation charge-bonddipole Fourier energy:                 0.00000000
	Adsorbate/Cation bondipole-bonddipole Real energy:                 0.00000000
	Adsorbate/Cation bondipole-bonddipole Fourier energy:              0.00000000

Cation/Cation energy:                                           0.00000000
	Cation/Cation VDW energy:                                       0.00000000
	Cation/Cation Coulomb energy:                                   0.00000000
	Cation/Cation charge-charge Real energy:                        0.00000000
	Cation/Cation charge-charge Fourier energy:                     0.00000000
	Cation/Cation charge-bonddipole Real energy:                    0.00000000
	Cation/Cation charge-bonddipole Fourier energy:                 0.00000000
	Cation/Cation bondipole-bonddipole Real energy:                 0.00000000
	Cation/Cation bondipole-bonddipole Fourier energy:              0.00000000

Polarization energy:
	Host polarization energy:                                     0.00000000
	Adsorbate polarization energy:                                0.00000000
	Cation polarization energy:                                   0.00000000
	Host back-polarization energy:                                     0.00000000
	Adsorbate back-polarization energy:                                0.00000000
	Cation back-polarization energy:                                   0.00000000

Tail-correction energy:                                  -14613.41611269

Distance constraints energy:                                  0.00000000
Angle constraints energy:                                     0.00000000
Dihedral constraints energy:                                  0.00000000
Inversion-bend constraints energy:                            0.00000000
Out-of-plane distance constraints energy:                     0.00000000
Exclusion constraints energy:                                 0.00000000

===================================================================
Total energy: -114599.212459643255
	Total Van der Waals: -99985.796347
	Total Coulomb: 0.000000

	Total Polarization: 0.000000







+++++++++++++++++++++++++++++++++++++++++++++++++++++++++++++++++++++++++
Starting simulation
+++++++++++++++++++++++++++++++++++++++++++++++++++++++++++++++++++++++++

[Init] Current cycle: 0 out of 300
========================================================================================================

Net charge: 0 (F: 0, A: 0, C: 0)
Current Box:  17.22000   0.00000   0.00000 [A]
               0.00000  17.04000   0.00000 [A]
               0.00000   0.00000  20.00000 [A]
Box-lengths:  17.22000  17.04000  20.00000 Box-angles:   90.00000  90.00000  90.00000 [degrees]
Volume: 5868.57600 [A^3]

Loadings per component:
----------------------------------------------------------------------------------------------------------------------------------------------------
Component 0 (Ar), current number of integer/fractional/reaction molecules: 93/0/0, density: 1051.27514 [kg/m^3]
	absolute adsorption:   3.32143 [mol/uc],        69.1346 [mol/kg],           2761.9263 [mg/g]
	                                              1549.5807 [cm^3 STP/g],        589.8181 [cm^3 STP/cm^3]
	excess adsorption:     3.31996 [mol/uc],        69.1040 [mol/kg],           2760.7065 [mg/g]
	                                              1548.8964 [cm^3 STP/g],        589.5576 [cm^3 STP/cm^3]
----------------------------------------------------------------------------------------------------------------------------------------------------
Degrees of freedom: 279 0 279 0
Number of Framework-atoms:    112
Number of Adsorbates:          93 (93 integer, 0 fractional, 0 reaction)
Number of Cations:              0 (0 integer, 0 fractional, 0 reaction

Current total potential energy:           -114599.2124596433 [K]
	Current Host-Host energy:                     0.0000000000 [K]
	Current Host-Adsorbate energy:           -53626.7456089801 [K]
	Current Host-Cation energy:                   0.0000000000 [K]
	Current Adsorbate-Adsorbate energy:      -46359.0507379753 [K]
	Current Cation-Cation energy:                 0.0000000000 [K]
	Current Adsorbate-Cation energy:              0.0000000000 [K]



[Init] Current cycle: 30 out of 300
========================================================================================================

Net charge: 0 (F: 0, A: 0, C: 0)
Current Box:  17.22000   0.00000   0.00000 [A]
               0.00000  17.04000   0.00000 [A]
               0.00000   0.00000  20.00000 [A]
Box-lengths:  17.22000  17.04000  20.00000 Box-angles:   90.00000  90.00000  90.00000 [degrees]
Volume: 5868.57600 [A^3]

Loadings per component:
----------------------------------------------------------------------------------------------------------------------------------------------------
Component 0 (Ar), current number of integer/fractional/reaction molecules: 98/0/0, density: 1107.79530 [kg/m^3]
	absolute adsorption:   3.50000 [mol/uc],        72.8515 [mol/kg],           2910.4170 [mg/g]
	                                              1632.8915 [cm^3 STP/g],        621.5288 [cm^3 STP/cm^3]
	excess adsorption:     3.49853 [mol/uc],        72.8210 [mol/kg],           2909.1972 [mg/g]
	                                              1632.2071 [cm^3 STP/g],        621.2683 [cm^3 STP/cm^3]
----------------------------------------------------------------------------------------------------------------------------------------------------
Degrees of freedom: 294 0 294 0
Number of Framework-atoms:    112
Number of Adsorbates:          98 (98 integer, 0 fractional, 0 reaction)
Number of Cations:              0 (0 integer, 0 fractional, 0 reaction

Current total potential energy:           -122260.4728328784 [K]
	Current Host-Host energy:                     0.0000000000 [K]
	Current Host-Adsorbate energy:           -53787.3419240714 [K]
	Current Host-Cation energy:                   0.0000000000 [K]
	Current Adsorbate-Adsorbate energy:      -52979.2756558620 [K]
	Current Cation-Cation energy:                 0.0000000000 [K]
	Current Adsorbate-Cation energy:              0.0000000000 [K]



[Init] Current cycle: 60 out of 300
========================================================================================================

Net charge: 0 (F: 0, A: 0, C: 0)
Current Box:  17.22000   0.00000   0.00000 [A]
               0.00000  17.04000   0.00000 [A]
               0.00000   0.00000  20.00000 [A]
Box-lengths:  17.22000  17.04000  20.00000 Box-angles:   90.00000  90.00000  90.00000 [degrees]
Volume: 5868.57600 [A^3]

Loadings per component:
----------------------------------------------------------------------------------------------------------------------------------------------------
Component 0 (Ar), current number of integer/fractional/reaction molecules: 99/0/0, density: 1119.09934 [kg/m^3]
	absolute adsorption:   3.53571 [mol/uc],        73.5949 [mol/kg],           2940.1151 [mg/g]
	                                              1649.5537 [cm^3 STP/g],        627.8709 [cm^3 STP/cm^3]
	excess adsorption:     3.53425 [mol/uc],        73.5643 [mol/kg],           2938.8953 [mg/g]
	                                              1648.8693 [cm^3 STP/g],        627.6104 [cm^3 STP/cm^3]
----------------------------------------------------------------------------------------------------------------------------------------------------
Degrees of freedom: 297 0 297 0
Number of Framework-atoms:    112
Number of Adsorbates:          99 (99 integer, 0 fractional, 0 reaction)
Number of Cations:              0 (0 integer, 0 fractional, 0 reaction

Current total potential energy:           -123179.2479770255 [K]
	Current Host-Host energy:                     0.0000000000 [K]
	Current Host-Adsorbate energy:           -53733.9095485947 [K]
	Current Host-Cation energy:                   0.0000000000 [K]
	Current Adsorbate-Adsorbate energy:      -53772.3054536623 [K]
	Current Cation-Cation energy:                 0.0000000000 [K]
	Current Adsorbate-Cation energy:              0.0000000000 [K]



[Init] Current cycle: 90 out of 300
========================================================================================================

Net charge: 0 (F: 0, A: 0, C: 0)
Current Box:  17.22000   0.00000   0.00000 [A]
               0.00000  17.04000   0.00000 [A]
               0.00000   0.00000  20.00000 [A]
Box-lengths:  17.22000  17.04000  20.00000 Box-angles:   90.00000  90.00000  90.00000 [degrees]
Volume: 5868.57600 [A^3]

Loadings per component:
----------------------------------------------------------------------------------------------------------------------------------------------------
Component 0 (Ar), current number of integer/fractional/reaction molecules: 98/0/0, density: 1107.79530 [kg/m^3]
	absolute adsorption:   3.50000 [mol/uc],        72.8515 [mol/kg],           2910.4170 [mg/g]
	                                              1632.8915 [cm^3 STP/g],        621.5288 [cm^3 STP/cm^3]
	excess adsorption:     3.49853 [mol/uc],        72.8210 [mol/kg],           2909.1972 [mg/g]
	                                              1632.2071 [cm^3 STP/g],        621.2683 [cm^3 STP/cm^3]
----------------------------------------------------------------------------------------------------------------------------------------------------
Degrees of freedom: 294 0 294 0
Number of Framework-atoms:    112
Number of Adsorbates:          98 (98 integer, 0 fractional, 0 reaction)
Number of Cations:              0 (0 integer, 0 fractional, 0 reaction

Current total potential energy:           -120528.1196184328 [K]
	Current Host-Host energy:                     0.0000000000 [K]
	Current Host-Adsorbate energy:           -52769.6514557617 [K]
	Current Host-Cation energy:                   0.0000000000 [K]
	Current Adsorbate-Adsorbate energy:      -52264.6129097260 [K]
	Current Cation-Cation energy:                 0.0000000000 [K]
	Current Adsorbate-Cation energy:              0.0000000000 [K]



[Init] Current cycle: 120 out of 300
========================================================================================================

Net charge: 0 (F: 0, A: 0, C: 0)
Current Box:  17.22000   0.00000   0.00000 [A]
               0.00000  17.04000   0.00000 [A]
               0.00000   0.00000  20.00000 [A]
Box-lengths:  17.22000  17.04000  20.00000 Box-angles:   90.00000  90.00000  90.00000 [degrees]
Volume: 5868.57600 [A^3]

Loadings per component:
----------------------------------------------------------------------------------------------------------------------------------------------------
Component 0 (Ar), current number of integer/fractional/reaction molecules: 99/0/0, density: 1119.09934 [kg/m^3]
	absolute adsorption:   3.53571 [mol/uc],        73.5949 [mol/kg],           2940.1151 [mg/g]
	                                              1649.5537 [cm^3 STP/g],        627.8709 [cm^3 STP/cm^3]
	excess adsorption:     3.53425 [mol/uc],        73.5643 [mol/kg],           2938.8953 [mg/g]
	                                              1648.8693 [cm^3 STP/g],        627.6104 [cm^3 STP/cm^3]
----------------------------------------------------------------------------------------------------------------------------------------------------
Degrees of freedom: 297 0 297 0
Number of Framework-atoms:    112
Number of Adsorbates:          99 (99 integer, 0 fractional, 0 reaction)
Number of Cations:              0 (0 integer, 0 fractional, 0 reaction

Current total potential energy:           -123440.1497631967 [K]
	Current Host-Host energy:                     0.0000000000 [K]
	Current Host-Adsorbate energy:           -53193.0998186596 [K]
	Current Host-Cation energy:                   0.0000000000 [K]
	Current Adsorbate-Adsorbate energy:      -54574.0169697686 [K]
	Current Cation-Cation energy:                 0.0000000000 [K]
	Current Adsorbate-Cation energy:              0.0000000000 [K]



[Init] Current cycle: 150 out of 300
========================================================================================================

Net charge: 0 (F: 0, A: 0, C: 0)
Current Box:  17.22000   0.00000   0.00000 [A]
               0.00000  17.04000   0.00000 [A]
               0.00000   0.00000  20.00000 [A]
Box-lengths:  17.22000  17.04000  20.00000 Box-angles:   90.00000  90.00000  90.00000 [degrees]
Volume: 5868.57600 [A^3]

Loadings per component:
----------------------------------------------------------------------------------------------------------------------------------------------------
Component 0 (Ar), current number of integer/fractional/reaction molecules: 101/0/0, density: 1141.70741 [kg/m^3]
	absolute adsorption:   3.60714 [mol/uc],        75.0816 [mol/kg],           2999.5114 [mg/g]
	                                              1682.8780 [cm^3 STP/g],        640.5552 [cm^3 STP/cm^3]
	excess adsorption:     3.60568 [mol/uc],        75.0511 [mol/kg],           2998.2916 [mg/g]
	                                              1682.1936 [cm^3 STP/g],        640.2947 [cm^3 STP/cm^3]
----------------------------------------------------------------------------------------------------------------------------------------------------
Degrees of freedom: 303 0 303 0
Number of Framework-atoms:    112
Number of Adsorbates:         101 (101 integer, 0 fractional, 0 reaction)
Number of Cations:              0 (0 integer, 0 fractional, 0 reaction

Current total potential energy:           -124849.1416887184 [K]
	Current Host-Host energy:                     0.0000000000 [K]
	Current Host-Adsorbate energy:           -53077.4355033000 [K]
	Current Host-Cation energy:                   0.0000000000 [K]
	Current Adsorbate-Adsorbate energy:      -55737.2278732310 [K]
	Current Cation-Cation energy:                 0.0000000000 [K]
	Current Adsorbate-Cation energy:              0.0000000000 [K]



[Init] Current cycle: 180 out of 300
========================================================================================================

Net charge: 0 (F: 0, A: 0, C: 0)
Current Box:  17.22000   0.00000   0.00000 [A]
               0.00000  17.04000   0.00000 [A]
               0.00000   0.00000  20.00000 [A]
Box-lengths:  17.22000  17.04000  20.00000 Box-angles:   90.00000  90.00000  90.00000 [degrees]
Volume: 5868.57600 [A^3]

Loadings per component:
----------------------------------------------------------------------------------------------------------------------------------------------------
Component 0 (Ar), current number of integer/fractional/reaction molecules: 100/0/0, density: 1130.40337 [kg/m^3]
	absolute adsorption:   3.57143 [mol/uc],        74.3383 [mol/kg],           2969.8133 [mg/g]
	                                              1666.2158 [cm^3 STP/g],        634.2130 [cm^3 STP/cm^3]
	excess adsorption:     3.56996 [mol/uc],        74.3077 [mol/kg],           2968.5935 [mg/g]
	                                              1665.5315 [cm^3 STP/g],        633.9526 [cm^3 STP/cm^3]
----------------------------------------------------------------------------------------------------------------------------------------------------
Degrees of freedom: 300 0 300 0
Number of Framework-atoms:    112
Number of Adsorbates:         100 (100 integer, 0 fractional, 0 reaction)
Number of Cations:              0 (0 integer, 0 fractional, 0 reaction

Current total potential energy:           -124402.2041175475 [K]
	Current Host-Host energy:                     0.0000000000 [K]
	Current Host-Adsorbate energy:           -52786.1782766701 [K]
	Current Host-Cation energy:                   0.0000000000 [K]
	Current Adsorbate-Adsorbate energy:      -55762.7851796945 [K]
	Current Cation-Cation energy:                 0.0000000000 [K]
	Current Adsorbate-Cation energy:              0.0000000000 [K]



[Init] Current cycle: 210 out of 300
========================================================================================================

Net charge: 0 (F: 0, A: 0, C: 0)
Current Box:  17.22000   0.00000   0.00000 [A]
               0.00000  17.04000   0.00000 [A]
               0.00000   0.00000  20.00000 [A]
Box-lengths:  17.22000  17.04000  20.00000 Box-angles:   90.00000  90.00000  90.00000 [degrees]
Volume: 5868.57600 [A^3]

Loadings per component:
----------------------------------------------------------------------------------------------------------------------------------------------------
Component 0 (Ar), current number of integer/fractional/reaction molecules: 101/0/0, density: 1141.70741 [kg/m^3]
	absolute adsorption:   3.60714 [mol/uc],        75.0816 [mol/kg],           2999.5114 [mg/g]
	                                              1682.8780 [cm^3 STP/g],        640.5552 [cm^3 STP/cm^3]
	excess adsorption:     3.60568 [mol/uc],        75.0511 [mol/kg],           2998.2916 [mg/g]
	                                              1682.1936 [cm^3 STP/g],        640.2947 [cm^3 STP/cm^3]
----------------------------------------------------------------------------------------------------------------------------------------------------
Degrees of freedom: 303 0 303 0
Number of Framework-atoms:    112
Number of Adsorbates:         101 (101 integer, 0 fractional, 0 reaction)
Number of Cations:              0 (0 integer, 0 fractional, 0 reaction

Current total potential energy:           -126523.4473740467 [K]
	Current Host-Host energy:                     0.0000000000 [K]
	Current Host-Adsorbate energy:           -53394.5492731581 [K]
	Current Host-Cation energy:                   0.0000000000 [K]
	Current Adsorbate-Adsorbate energy:      -57094.4197887015 [K]
	Current Cation-Cation energy:                 0.0000000000 [K]
	Current Adsorbate-Cation energy:              0.0000000000 [K]



[Init] Current cycle: 240 out of 300
========================================================================================================

Net charge: 0 (F: 0, A: 0, C: 0)
Current Box:  17.22000   0.00000   0.00000 [A]
               0.00000  17.04000   0.00000 [A]
               0.00000   0.00000  20.00000 [A]
Box-lengths:  17.22000  17.04000  20.00000 Box-angles:   90.00000  90.00000  90.00000 [degrees]
Volume: 5868.57600 [A^3]

Loadings per component:
----------------------------------------------------------------------------------------------------------------------------------------------------
Component 0 (Ar), current number of integer/fractional/reaction molecules: 101/0/0, density: 1141.70741 [kg/m^3]
	absolute adsorption:   3.60714 [mol/uc],        75.0816 [mol/kg],           2999.5114 [mg/g]
	                                              1682.8780 [cm^3 STP/g],        640.5552 [cm^3 STP/cm^3]
	excess adsorption:     3.60568 [mol/uc],        75.0511 [mol/kg],           2998.2916 [mg/g]
	                                              1682.1936 [cm^3 STP/g],        640.2947 [cm^3 STP/cm^3]
----------------------------------------------------------------------------------------------------------------------------------------------------
Degrees of freedom: 303 0 303 0
Number of Framework-atoms:    112
Number of Adsorbates:         101 (101 integer, 0 fractional, 0 reaction)
Number of Cations:              0 (0 integer, 0 fractional, 0 reaction

Current total potential energy:           -127839.8489272875 [K]
	Current Host-Host energy:                     0.0000000000 [K]
	Current Host-Adsorbate energy:           -53042.7973689314 [K]
	Current Host-Cation energy:                   0.0000000000 [K]
	Current Adsorbate-Adsorbate energy:      -58762.5732461689 [K]
	Current Cation-Cation energy:                 0.0000000000 [K]
	Current Adsorbate-Cation energy:              0.0000000000 [K]



[Init] Current cycle: 270 out of 300
========================================================================================================

Net charge: 0 (F: 0, A: 0, C: 0)
Current Box:  17.22000   0.00000   0.00000 [A]
               0.00000  17.04000   0.00000 [A]
               0.00000   0.00000  20.00000 [A]
Box-lengths:  17.22000  17.04000  20.00000 Box-angles:   90.00000  90.00000  90.00000 [degrees]
Volume: 5868.57600 [A^3]

Loadings per component:
----------------------------------------------------------------------------------------------------------------------------------------------------
Component 0 (Ar), current number of integer/fractional/reaction molecules: 101/0/0, density: 1141.70741 [kg/m^3]
	absolute adsorption:   3.60714 [mol/uc],        75.0816 [mol/kg],           2999.5114 [mg/g]
	                                              1682.8780 [cm^3 STP/g],        640.5552 [cm^3 STP/cm^3]
	excess adsorption:     3.60568 [mol/uc],        75.0511 [mol/kg],           2998.2916 [mg/g]
	                                              1682.1936 [cm^3 STP/g],        640.2947 [cm^3 STP/cm^3]
----------------------------------------------------------------------------------------------------------------------------------------------------
Degrees of freedom: 303 0 303 0
Number of Framework-atoms:    112
Number of Adsorbates:         101 (101 integer, 0 fractional, 0 reaction)
Number of Cations:              0 (0 integer, 0 fractional, 0 reaction

Current total potential energy:           -125801.6585087028 [K]
	Current Host-Host energy:                     0.0000000000 [K]
	Current Host-Adsorbate energy:           -53954.0514523481 [K]
	Current Host-Cation energy:                   0.0000000000 [K]
	Current Adsorbate-Adsorbate energy:      -55813.1287441674 [K]
	Current Cation-Cation energy:                 0.0000000000 [K]
	Current Adsorbate-Cation energy:              0.0000000000 [K]



Average Properties at Current cycle: 0 out of 300
========================================================================================

Framework surface area:       0.0000000000 [m^2/g]        0.0000000000 [m^2/cm^3]       0.0000000000 [A^2]
	Framework 0 individual surface area:       0.0000000000 [m^2/g]        0.0000000000 [m^2/cm^3]       0.0000000000 [A^2]
	Cation surface area:                       0.0000000000 [m^2/g]        0.0000000000 [m^2/cm^3]       0.0000000000 [A^2]
Compressibility:       0.0000000000 [-]
Henry coefficients
	Component 0: 0 [mol/kg/Pa] (Rosenbluth factor new: 0 [-])
Energy <U_gh>_1-<U_h>_0 from Widom


Current cycle: 0 out of 300
========================================================================================================

Net charge: 0 (F: 0, A: 0, C: 0)
Current Box:  17.22000   0.00000   0.00000 [A]   Average Box:  17.22000   0.00000   0.00000 [A]
               0.00000  17.04000   0.00000 [A]                  0.00000  17.04000   0.00000 [A]
               0.00000   0.00000  20.00000 [A]                  0.00000   0.00000  20.00000 [A]
Box-lengths:   17.22000  17.04000  20.00000 [A] Average:  17.22000  17.04000  20.00000 [A]
Box-angles:   90.00000  90.00000  90.00000 [degrees] Average:  90.00000  90.00000  90.00000 [degrees]
Volume: 5868.57600 [A^3] Average Volume: 5868.57600 [A^3]

Loadings per component:
----------------------------------------------------------------------------------------------------------------------------------------------------
Component 0 (Ar), current number of integer/fractional/reaction molecules: 100/0/0 (avg. 100.00000), density: 1130.40337 (avg. 1130.40337) [kg/m^3]
	absolute adsorption:   3.57143 (avg.   3.57143) [mol/uc],  74.3382545859 (avg.  74.3382545859) [mol/kg], 2969.8132707049 (avg. 2969.8132707049) [mg/g]
	                     1666.2158354057 (avg. 1666.2158354057) [cm^3 STP/g],  634.2130484230 (avg. 634.2130484230) [cm^3 STP/cm^3]
	excess adsorption:     3.5699616651 (avg.   3.5357142857) [mol/uc],  74.3077213550 (avg.  73.5948720400) [mol/kg], 2968.5934681319 (avg. 2940.1151379978) [mg/g]
	                     1665.5314643097 (avg. 1649.5536770517) [cm^3 STP/g],  633.9525557125 (avg. 627.8709179387) [cm^3 STP/cm^3]
----------------------------------------------------------------------------------------------------------------------------------------------------
Degrees of freedom: 300 0 300 0
Number of Framework-atoms:    112
Number of Adsorbates:         100 (100 integer, 0 fractional, 0 reaction)
Number of Cations:              0 (0 integer, 0 fractional, 0 reaction)

Current total potential energy:           -124444.2402798035 [K]  (avg.     -124444.2402798035)
	Current Host-Host energy:                     0.0000000000 [K]  (avg.           0.0000000000)
	Current Host-Adsorbate energy:           -53740.6257596537 [K]  (avg.      -53740.6257596537)
	Current Host-Cation energy:                   0.0000000000 [K]  (avg.           0.0000000000)
	Current Adsorbate-Adsorbate energy:      -54850.3738589675 [K]  (avg.      -54850.3738589675)
	Current Cation-Cation energy:                 0.0000000000 [K]  (avg.           0.0000000000)
	Current Adsorbate-Cation energy:              0.0000000000 [K]  (avg.           0.0000000000)



Current cycle: 30 out of 300
========================================================================================================

Net charge: 0 (F: 0, A: 0, C: 0)
Current Box:  17.22000   0.00000   0.00000 [A]   Average Box:  17.22000   0.00000   0.00000 [A]
               0.00000  17.04000   0.00000 [A]                  0.00000  17.04000   0.00000 [A]
               0.00000   0.00000  20.00000 [A]                  0.00000   0.00000  20.00000 [A]
Box-lengths:   17.22000  17.04000  20.00000 [A] Average:  17.22000  17.04000  20.00000 [A]
Box-angles:   90.00000  90.00000  90.00000 [degrees] Average:  90.00000  90.00000  90.00000 [degrees]
Volume: 5868.57600 [A^3] Average Volume: 5868.57600 [A^3]

Loadings per component:
----------------------------------------------------------------------------------------------------------------------------------------------------
Component 0 (Ar), current number of integer/fractional/reaction molecules: 101/0/0 (avg. 100.06452), density: 1141.70741 (avg. 1131.13266) [kg/m^3]
	absolute adsorption:   3.60714 (avg.   3.57373) [mol/uc],  75.0816371317 (avg.  74.3862147501) [mol/kg], 2999.5114034119 (avg. 2971.7292792666) [mg/g]
	                     1682.8779937598 (avg. 1667.2908133641) [cm^3 STP/g],  640.5551789072 (avg. 634.6222181316) [cm^3 STP/cm^3]
	excess adsorption:     3.6056759509 (avg.   3.5380184332) [mol/uc],  75.0511039008 (avg.  73.6428322042) [mol/kg], 2998.2916008389 (avg. 2942.0311465596) [mg/g]
	                     1682.1936226637 (avg. 1650.6286550100) [cm^3 STP/g],  640.2946861968 (avg. 628.2800876474) [cm^3 STP/cm^3]
----------------------------------------------------------------------------------------------------------------------------------------------------
Degrees of freedom: 303 0 303 0
Number of Framework-atoms:    112
Number of Adsorbates:         101 (101 integer, 0 fractional, 0 reaction)
Number of Cations:              0 (0 integer, 0 fractional, 0 reaction)

Current total potential energy:           -128105.4949929231 [K]  (avg.     -126072.5871836842)
	Current Host-Host energy:                     0.0000000000 [K]  (avg.           0.0000000000)
	Current Host-Adsorbate energy:           -53774.1836413696 [K]  (avg.      -54051.9943806913)
	Current Host-Cation energy:                   0.0000000000 [K]  (avg.           0.0000000000)
	Current Adsorbate-Adsorbate energy:      -58296.8330393663 [K]  (avg.      -56155.6593901328)
	Current Cation-Cation energy:                 0.0000000000 [K]  (avg.           0.0000000000)
	Current Adsorbate-Cation energy:              0.0000000000 [K]  (avg.           0.0000000000)



Current cycle: 60 out of 300
========================================================================================================

Net charge: 0 (F: 0, A: 0, C: 0)
Current Box:  17.22000   0.00000   0.00000 [A]   Average Box:  17.22000   0.00000   0.00000 [A]
               0.00000  17.04000   0.00000 [A]                  0.00000  17.04000   0.00000 [A]
               0.00000   0.00000  20.00000 [A]                  0.00000   0.00000  20.00000 [A]
Box-lengths:   17.22000  17.04000  20.00000 [A] Average:  17.22000  17.04000  20.00000 [A]
Box-angles:   90.00000  90.00000  90.00000 [degrees] Average:  90.00000  90.00000  90.00000 [degrees]
Volume: 5868.57600 [A^3] Average Volume: 5868.57600 [A^3]

Loadings per component:
----------------------------------------------------------------------------------------------------------------------------------------------------
Component 0 (Ar), current number of integer/fractional/reaction molecules: 100/0/0 (avg. 100.21311), density: 1130.40337 (avg. 1132.81243) [kg/m^3]
	absolute adsorption:   3.57143 (avg.   3.57904) [mol/uc],  74.3382545859 (avg.  74.4966803743) [mol/kg], 2969.8132707049 (avg. 2976.1423809539) [mg/g]
	                     1666.2158354057 (avg. 1669.7667871861) [cm^3 STP/g],  634.2130484230 (avg. 635.5646500016) [cm^3 STP/cm^3]
	excess adsorption:     3.5699616651 (avg.   3.5433255269) [mol/uc],  74.3077213550 (avg.  73.7532978285) [mol/kg], 2968.5934681319 (avg. 2946.4442482469) [mg/g]
	                     1665.5314643097 (avg. 1653.1046288320) [cm^3 STP/g],  633.9525557125 (avg. 629.2225195173) [cm^3 STP/cm^3]
----------------------------------------------------------------------------------------------------------------------------------------------------
Degrees of freedom: 300 0 300 0
Number of Framework-atoms:    112
Number of Adsorbates:         100 (100 integer, 0 fractional, 0 reaction)
Number of Cations:              0 (0 integer, 0 fractional, 0 reaction)

Current total potential energy:           -128142.5550838706 [K]  (avg.     -126759.5241940944)
	Current Host-Host energy:                     0.0000000000 [K]  (avg.           0.0000000000)
	Current Host-Adsorbate energy:           -55001.5020834765 [K]  (avg.      -54108.7804279563)
	Current Host-Cation energy:                   0.0000000000 [K]  (avg.           0.0000000000)
	Current Adsorbate-Adsorbate energy:      -57287.8123392118 [K]  (avg.      -56758.8786875285)
	Current Cation-Cation energy:                 0.0000000000 [K]  (avg.           0.0000000000)
	Current Adsorbate-Cation energy:              0.0000000000 [K]  (avg.           0.0000000000)



Current cycle: 90 out of 300
========================================================================================================

Net charge: 0 (F: 0, A: 0, C: 0)
Current Box:  17.22000   0.00000   0.00000 [A]   Average Box:  17.22000   0.00000   0.00000 [A]
               0.00000  17.04000   0.00000 [A]                  0.00000  17.04000   0.00000 [A]
               0.00000   0.00000  20.00000 [A]                  0.00000   0.00000  20.00000 [A]
Box-lengths:   17.22000  17.04000  20.00000 [A] Average:  17.22000  17.04000  20.00000 [A]
Box-angles:   90.00000  90.00000  90.00000 [degrees] Average:  90.00000  90.00000  90.00000 [degrees]
Volume: 5868.57600 [A^3] Average Volume: 5868.57600 [A^3]

Loadings per component:
----------------------------------------------------------------------------------------------------------------------------------------------------
Component 0 (Ar), current number of integer/fractional/reaction molecules: 100/0/0 (avg. 100.20879), density: 1130.40337 (avg. 1132.76355) [kg/m^3]
	absolute adsorption:   3.57143 (avg.   3.57889) [mol/uc],  74.3382545859 (avg.  74.4934663262) [mol/kg], 2969.8132707049 (avg. 2976.0139797316) [mg/g]
	                     1666.2158354057 (avg. 1669.6947475895) [cm^3 STP/g],  634.2130484230 (avg. 635.5372295131) [cm^3 STP/cm^3]
	excess adsorption:     3.5699616651 (avg.   3.5431711146) [mol/uc],  74.3077213550 (avg.  73.7500837803) [mol/kg], 2968.5934681319 (avg. 2946.3158470246) [mg/g]
	                     1665.5314643097 (avg. 1653.0325892355) [cm^3 STP/g],  633.9525557125 (avg. 629.1950990288) [cm^3 STP/cm^3]
----------------------------------------------------------------------------------------------------------------------------------------------------
Degrees of freedom: 300 0 300 0
Number of Framework-atoms:    112
Number of Adsorbates:         100 (100 integer, 0 fractional, 0 reaction)
Number of Cations:              0 (0 integer, 0 fractional, 0 reaction)

Current total potential energy:           -126005.2706614108 [K]  (avg.     -126755.2690659324)
	Current Host-Host energy:                     0.0000000000 [K]  (avg.           0.0000000000)
	Current Host-Adsorbate energy:           -54103.5836654712 [K]  (avg.      -54230.3364004940)
	Current Host-Cation energy:                   0.0000000000 [K]  (avg.           0.0000000000)
	Current Adsorbate-Adsorbate energy:      -56048.4463347574 [K]  (avg.      -56633.8511760243)
	Current Cation-Cation energy:                 0.0000000000 [K]  (avg.           0.0000000000)
	Current Adsorbate-Cation energy:              0.0000000000 [K]  (avg.           0.0000000000)



Current cycle: 120 out of 300
========================================================================================================

Net charge: 0 (F: 0, A: 0, C: 0)
Current Box:  17.22000   0.00000   0.00000 [A]   Average Box:  17.22000   0.00000   0.00000 [A]
               0.00000  17.04000   0.00000 [A]                  0.00000  17.04000   0.00000 [A]
               0.00000   0.00000  20.00000 [A]                  0.00000   0.00000  20.00000 [A]
Box-lengths:   17.22000  17.04000  20.00000 [A] Average:  17.22000  17.04000  20.00000 [A]
Box-angles:   90.00000  90.00000  90.00000 [degrees] Average:  90.00000  90.00000  90.00000 [degrees]
Volume: 5868.57600 [A^3] Average Volume: 5868.57600 [A^3]

Loadings per component:
----------------------------------------------------------------------------------------------------------------------------------------------------
Component 0 (Ar), current number of integer/fractional/reaction molecules: 98/0/0 (avg.  99.89256), density: 1107.79530 (avg. 1129.18889) [kg/m^3]
	absolute adsorption:   3.50000 (avg.   3.56759) [mol/uc],  72.8514894941 (avg.  74.2583870396) [mol/kg], 2910.4170052908 (avg. 2966.6225622322) [mg/g]
	                     1632.8915186976 (avg. 1664.4256861611) [cm^3 STP/g],  621.5287874545 (avg. 633.5316625032) [cm^3 STP/cm^3]
	excess adsorption:     3.4985330937 (avg.   3.5318772137) [mol/uc],  72.8209562633 (avg.  73.5150044937) [mol/kg], 2909.1972027178 (avg. 2936.9244295252) [mg/g]
	                     1632.2071476015 (avg. 1647.7635278070) [cm^3 STP/g],  621.2682947441 (avg. 627.1895320189) [cm^3 STP/cm^3]
----------------------------------------------------------------------------------------------------------------------------------------------------
Degrees of freedom: 294 0 294 0
Number of Framework-atoms:    112
Number of Adsorbates:          98 (98 integer, 0 fractional, 0 reaction)
Number of Cations:              0 (0 integer, 0 fractional, 0 reaction)

Current total potential energy:           -124632.9122982415 [K]  (avg.     -126310.9772118500)
	Current Host-Host energy:                     0.0000000000 [K]  (avg.           0.0000000000)
	Current Host-Adsorbate energy:           -55298.1310473562 [K]  (avg.      -54405.0095155046)
	Current Host-Cation energy:                   0.0000000000 [K]  (avg.           0.0000000000)
	Current Adsorbate-Adsorbate energy:      -53840.9259979404 [K]  (avg.      -56071.7987800168)
	Current Cation-Cation energy:                 0.0000000000 [K]  (avg.           0.0000000000)
	Current Adsorbate-Cation energy:              0.0000000000 [K]  (avg.           0.0000000000)



Current cycle: 150 out of 300
========================================================================================================

Net charge: 0 (F: 0, A: 0, C: 0)
Current Box:  17.22000   0.00000   0.00000 [A]   Average Box:  17.22000   0.00000   0.00000 [A]
               0.00000  17.04000   0.00000 [A]                  0.00000  17.04000   0.00000 [A]
               0.00000   0.00000  20.00000 [A]                  0.00000   0.00000  20.00000 [A]
Box-lengths:   17.22000  17.04000  20.00000 [A] Average:  17.22000  17.04000  20.00000 [A]
Box-angles:   90.00000  90.00000  90.00000 [degrees] Average:  90.00000  90.00000  90.00000 [degrees]
Volume: 5868.57600 [A^3] Average Volume: 5868.57600 [A^3]

Loadings per component:
----------------------------------------------------------------------------------------------------------------------------------------------------
Component 0 (Ar), current number of integer/fractional/reaction molecules: 100/0/0 (avg.  99.82781), density: 1130.40337 (avg. 1128.45698) [kg/m^3]
	absolute adsorption:   3.57143 (avg.   3.56528) [mol/uc],  74.3382545859 (avg.  74.2102549422) [mol/kg], 2969.8132707049 (avg. 2964.6996849408) [mg/g]
	                     1666.2158354057 (avg. 1663.3468544971) [cm^3 STP/g],  634.2130484230 (avg. 633.1210259555) [cm^3 STP/cm^3]
	excess adsorption:     3.5699616651 (avg.   3.5295648061) [mol/uc],  74.3077213550 (avg.  73.4668723963) [mol/kg], 2968.5934681319 (avg. 2935.0015522337) [mg/g]
	                     1665.5314643097 (avg. 1646.6846961430) [cm^3 STP/g],  633.9525557125 (avg. 626.7788954712) [cm^3 STP/cm^3]
----------------------------------------------------------------------------------------------------------------------------------------------------
Degrees of freedom: 300 0 300 0
Number of Framework-atoms:    112
Number of Adsorbates:         100 (100 integer, 0 fractional, 0 reaction)
Number of Cations:              0 (0 integer, 0 fractional, 0 reaction)

Current total potential energy:           -128952.4152638166 [K]  (avg.     -126363.7571036822)
	Current Host-Host energy:                     0.0000000000 [K]  (avg.           0.0000000000)
	Current Host-Adsorbate energy:           -55930.9535465651 [K]  (avg.      -54595.1214293324)
	Current Host-Cation energy:                   0.0000000000 [K]  (avg.           0.0000000000)
	Current Adsorbate-Adsorbate energy:      -57168.2210560693 [K]  (avg.      -55946.1513129234)
	Current Cation-Cation energy:                 0.0000000000 [K]  (avg.           0.0000000000)
	Current Adsorbate-Cation energy:              0.0000000000 [K]  (avg.           0.0000000000)



Current cycle: 180 out of 300
========================================================================================================

Net charge: 0 (F: 0, A: 0, C: 0)
Current Box:  17.22000   0.00000   0.00000 [A]   Average Box:  17.22000   0.00000   0.00000 [A]
               0.00000  17.04000   0.00000 [A]                  0.00000  17.04000   0.00000 [A]
               0.00000   0.00000  20.00000 [A]                  0.00000   0.00000  20.00000 [A]
Box-lengths:   17.22000  17.04000  20.00000 [A] Average:  17.22000  17.04000  20.00000 [A]
Box-angles:   90.00000  90.00000  90.00000 [degrees] Average:  90.00000  90.00000  90.00000 [degrees]
Volume: 5868.57600 [A^3] Average Volume: 5868.57600 [A^3]

Loadings per component:
----------------------------------------------------------------------------------------------------------------------------------------------------
Component 0 (Ar), current number of integer/fractional/reaction molecules: 100/0/0 (avg.  99.88950), density: 1130.40337 (avg. 1129.15431) [kg/m^3]
	absolute adsorption:   3.57143 (avg.   3.56748) [mol/uc],  74.3382545859 (avg.  74.2561128681) [mol/kg], 2969.8132707049 (avg. 2966.5317090798) [mg/g]
	                     1666.2158354057 (avg. 1664.3747129357) [cm^3 STP/g],  634.2130484230 (avg. 633.5122605241) [cm^3 STP/cm^3]
	excess adsorption:     3.5699616651 (avg.   3.5317679558) [mol/uc],  74.3077213550 (avg.  73.5127303222) [mol/kg], 2968.5934681319 (avg. 2936.8335763728) [mg/g]
	                     1665.5314643097 (avg. 1647.7125545816) [cm^3 STP/g],  633.9525557125 (avg. 627.1701300399) [cm^3 STP/cm^3]
----------------------------------------------------------------------------------------------------------------------------------------------------
Degrees of freedom: 300 0 300 0
Number of Framework-atoms:    112
Number of Adsorbates:         100 (100 integer, 0 fractional, 0 reaction)
Number of Cations:              0 (0 integer, 0 fractional, 0 reaction)

Current total potential energy:           -127664.4317454838 [K]  (avg.     -126745.3985219912)
	Current Host-Host energy:                     0.0000000000 [K]  (avg.           0.0000000000)
	Current Host-Adsorbate energy:           -56538.2005178199 [K]  (avg.      -54889.0156994855)
	Current Host-Cation energy:                   0.0000000000 [K]  (avg.           0.0000000000)
	Current Adsorbate-Adsorbate energy:      -55272.9905664816 [K]  (avg.      -56022.7871634921)
	Current Cation-Cation energy:                 0.0000000000 [K]  (avg.           0.0000000000)
	Current Adsorbate-Cation energy:              0.0000000000 [K]  (avg.           0.0000000000)



Current cycle: 210 out of 300
========================================================================================================

Net charge: 0 (F: 0, A: 0, C: 0)
Current Box:  17.22000   0.00000   0.00000 [A]   Average Box:  17.22000   0.00000   0.00000 [A]
               0.00000  17.04000   0.00000 [A]                  0.00000  17.04000   0.00000 [A]
               0.00000   0.00000  20.00000 [A]                  0.00000   0.00000  20.00000 [A]
Box-lengths:   17.22000  17.04000  20.00000 [A] Average:  17.22000  17.04000  20.00000 [A]
Box-angles:   90.00000  90.00000  90.00000 [degrees] Average:  90.00000  90.00000  90.00000 [degrees]
Volume: 5868.57600 [A^3] Average Volume: 5868.57600 [A^3]

Loadings per component:
----------------------------------------------------------------------------------------------------------------------------------------------------
Component 0 (Ar), current number of integer/fractional/reaction molecules: 101/0/0 (avg.  99.97156), density: 1141.70741 (avg. 1130.08193) [kg/m^3]
	absolute adsorption:   3.60714 (avg.   3.57041) [mol/uc],  75.0816371317 (avg.  74.3171157457) [mol/kg], 2999.5114034119 (avg. 2968.9687740402) [mg/g]
	                     1682.8779937598 (avg. 1665.7420299549) [cm^3 STP/g],  640.5551789072 (avg. 634.0327034803) [cm^3 STP/cm^3]
	excess adsorption:     3.6056759509 (avg.   3.5346987136) [mol/uc],  75.0511039008 (avg.  73.5737331998) [mol/kg], 2998.2916008389 (avg. 2939.2706413332) [mg/g]
	                     1682.1936226637 (avg. 1649.0798716009) [cm^3 STP/g],  640.2946861968 (avg. 627.6905729960) [cm^3 STP/cm^3]
----------------------------------------------------------------------------------------------------------------------------------------------------
Degrees of freedom: 303 0 303 0
Number of Framework-atoms:    112
Number of Adsorbates:         101 (101 integer, 0 fractional, 0 reaction)
Number of Cations:              0 (0 integer, 0 fractional, 0 reaction)

Current total potential energy:           -130015.2507416158 [K]  (avg.     -127028.9690910687)
	Current Host-Host energy:                     0.0000000000 [K]  (avg.           0.0000000000)
	Current Host-Adsorbate energy:           -57062.8096195502 [K]  (avg.      -55154.8996476339)
	Current Host-Cation energy:                   0.0000000000 [K]  (avg.           0.0000000000)
	Current Adsorbate-Adsorbate energy:      -56917.9628098783 [K]  (avg.      -56025.6310024207)
	Current Cation-Cation energy:                 0.0000000000 [K]  (avg.           0.0000000000)
	Current Adsorbate-Cation energy:              0.0000000000 [K]  (avg.           0.0000000000)



Current cycle: 240 out of 300
========================================================================================================

Net charge: 0 (F: 0, A: 0, C: 0)
Current Box:  17.22000   0.00000   0.00000 [A]   Average Box:  17.22000   0.00000   0.00000 [A]
               0.00000  17.04000   0.00000 [A]                  0.00000  17.04000   0.00000 [A]
               0.00000   0.00000  20.00000 [A]                  0.00000   0.00000  20.00000 [A]
Box-lengths:   17.22000  17.04000  20.00000 [A] Average:  17.22000  17.04000  20.00000 [A]
Box-angles:   90.00000  90.00000  90.00000 [degrees] Average:  90.00000  90.00000  90.00000 [degrees]
Volume: 5868.57600 [A^3] Average Volume: 5868.57600 [A^3]

Loadings per component:
----------------------------------------------------------------------------------------------------------------------------------------------------
Component 0 (Ar), current number of integer/fractional/reaction molecules: 102/0/0 (avg. 100.12033), density: 1153.01144 (avg. 1131.76361) [kg/m^3]
	absolute adsorption:   3.64286 (avg.   3.57573) [mol/uc],  75.8250196776 (avg.  74.4277072573) [mol/kg], 3029.2095361190 (avg. 2973.3869049311) [mg/g]
	                     1699.5401521138 (avg. 1668.2208254151) [cm^3 STP/g],  646.8973093914 (avg. 634.9762093526) [cm^3 STP/cm^3]
	excess adsorption:     3.6413902366 (avg.   3.5400118554) [mol/uc],  75.7944864467 (avg.  73.6843247115) [mol/kg], 3027.9897335460 (avg. 2943.6887722240) [mg/g]
	                     1698.8557810178 (avg. 1651.5586670611) [cm^3 STP/g],  646.6368166810 (avg. 628.6340788684) [cm^3 STP/cm^3]
----------------------------------------------------------------------------------------------------------------------------------------------------
Degrees of freedom: 306 0 306 0
Number of Framework-atoms:    112
Number of Adsorbates:         102 (102 integer, 0 fractional, 0 reaction)
Number of Cations:              0 (0 integer, 0 fractional, 0 reaction)

Current total potential energy:           -130127.9987811689 [K]  (avg.     -127374.2423094647)
	Current Host-Host energy:                     0.0000000000 [K]  (avg.           0.0000000000)
	Current Host-Adsorbate energy:           -56789.5583671223 [K]  (avg.      -55422.1237249267)
	Current Host-Cation energy:                   0.0000000000 [K]  (avg.           0.0000000000)
	Current Adsorbate-Adsorbate energy:      -57121.6944862638 [K]  (avg.      -56076.7401675357)
	Current Cation-Cation energy:                 0.0000000000 [K]  (avg.           0.0000000000)
	Current Adsorbate-Cation energy:              0.0000000000 [K]  (avg.           0.0000000000)



Current cycle: 270 out of 300
========================================================================================================

Net charge: 0 (F: 0, A: 0, C: 0)
Current Box:  17.22000   0.00000   0.00000 [A]   Average Box:  17.22000   0.00000   0.00000 [A]
               0.00000  17.04000   0.00000 [A]                  0.00000  17.04000   0.00000 [A]
               0.00000   0.00000  20.00000 [A]                  0.00000   0.00000  20.00000 [A]
Box-lengths:   17.22000  17.04000  20.00000 [A] Average:  17.22000  17.04000  20.00000 [A]
Box-angles:   90.00000  90.00000  90.00000 [degrees] Average:  90.00000  90.00000  90.00000 [degrees]
Volume: 5868.57600 [A^3] Average Volume: 5868.57600 [A^3]

Loadings per component:
----------------------------------------------------------------------------------------------------------------------------------------------------
Component 0 (Ar), current number of integer/fractional/reaction molecules: 101/0/0 (avg. 100.28413), density: 1141.70741 (avg. 1133.61522) [kg/m^3]
	absolute adsorption:   3.60714 (avg.   3.58158) [mol/uc],  75.0816371317 (avg.  74.5494739808) [mol/kg], 2999.5114034119 (avg. 2978.2514855331) [mg/g]
	                     1682.8779937598 (avg. 1670.9501018015) [cm^3 STP/g],  640.5551789072 (avg. 636.0150559775) [cm^3 STP/cm^3]
	excess adsorption:     3.6056759509 (avg.   3.5458618872) [mol/uc],  75.0511039008 (avg.  73.8060914349) [mol/kg], 2998.2916008389 (avg. 2948.5533528261) [mg/g]
	                     1682.1936226637 (avg. 1654.2879434475) [cm^3 STP/g],  640.2946861968 (avg. 629.6729254933) [cm^3 STP/cm^3]
----------------------------------------------------------------------------------------------------------------------------------------------------
Degrees of freedom: 303 0 303 0
Number of Framework-atoms:    112
Number of Adsorbates:         101 (101 integer, 0 fractional, 0 reaction)
Number of Cations:              0 (0 integer, 0 fractional, 0 reaction)

Current total potential energy:           -127869.6571860559 [K]  (avg.     -127579.9092764852)
	Current Host-Host energy:                     0.0000000000 [K]  (avg.           0.0000000000)
	Current Host-Adsorbate energy:           -55699.1338247189 [K]  (avg.      -55505.4325081395)
	Current Host-Cation energy:                   0.0000000000 [K]  (avg.           0.0000000000)
	Current Adsorbate-Adsorbate energy:      -56136.0450491491 [K]  (avg.      -56169.3794807298)
	Current Cation-Cation energy:                 0.0000000000 [K]  (avg.           0.0000000000)
	Current Adsorbate-Cation energy:              0.0000000000 [K]  (avg.           0.0000000000)



+++++++++++++++++++++++++++++++++++++++++++++++++++++++++++++++++++++++++
Finishing simulation
+++++++++++++++++++++++++++++++++++++++++++++++++++++++++++++++++++++++++




Current (running energy) Energy Status
===========================================================================

Internal energy:
Host stretch energy:                                            0.00000000
Host UreyBradley energy:                                        0.00000000
Host bend energy:                                               0.00000000
Host inversion-bend energy:                                     0.00000000
Host torsion energy:                                            0.00000000
Host improper torsion energy:                                   0.00000000
Host out-of-plane energy:                                       0.00000000
Host stretch/stretch energy:                                    0.00000000
Host bend/bend energy:                                          0.00000000
Host stretch/bend energy:                                       0.00000000
Host stretch/torsion energy:                                    0.00000000
Host bend/torsion energy:                                       0.00000000

Adsorbate stretch energy:                                       0.00000000
Adsorbate UreyBradley energy:                                   0.00000000
Adsorbate bend energy:                                          0.00000000
Adsorbate inversion-bend energy:                                0.00000000
Adsorbate torsion energy:                                       0.00000000
Adsorbate improper torsion energy:                              0.00000000
Adsorbate out-of-plane energy:                                  0.00000000
Adsorbate stretch/stretch energy:                               0.00000000
Adsorbate bend/bend energy:                                     0.00000000
Adsorbate stretch/bend energy:                                  0.00000000
[...]
	Block[ 1]            0.00000 [K]
	Block[ 2]            0.00000 [K]
	Block[ 3]            0.00000 [K]
	Block[ 4]            0.00000 [K]
	------------------------------------------------------------------------------
	Average              0.00000 [K] +/-            0.00000 [K]

Average Cation Bend angle inversion energy:
===========================================
	Block[ 0]            0.00000 [K]
	Block[ 1]            0.00000 [K]
	Block[ 2]            0.00000 [K]
	Block[ 3]            0.00000 [K]
	Block[ 4]            0.00000 [K]
	------------------------------------------------------------------------------
	Average              0.00000 [K] +/-            0.00000 [K]

Average Cation Torsion energy:
==============================
	Block[ 0]            0.00000 [K]
	Block[ 1]            0.00000 [K]
	Block[ 2]            0.00000 [K]
	Block[ 3]            0.00000 [K]
	Block[ 4]            0.00000 [K]
	------------------------------------------------------------------------------
	Average              0.00000 [K] +/-            0.00000 [K]

Average Cation Improper Torsion energy:
=======================================
	Block[ 0]            0.00000 [K]
	Block[ 1]            0.00000 [K]
	Block[ 2]            0.00000 [K]
	Block[ 3]            0.00000 [K]
	Block[ 4]            0.00000 [K]
	------------------------------------------------------------------------------
	Average              0.00000 [K] +/-            0.00000 [K]

Average Cation Bond-Bond cross term energy:
=================================================
	Block[ 0]            0.00000 [K]
	Block[ 1]            0.00000 [K]
	Block[ 2]            0.00000 [K]
	Block[ 3]            0.00000 [K]
	Block[ 4]            0.00000 [K]
	------------------------------------------------------------------------------
	Average              0.00000 [K] +/-            0.00000 [K]

Average Cation Bend-Bend cross term energy:
===========================================
	Block[ 0]            0.00000 [K]
	Block[ 1]            0.00000 [K]
	Block[ 2]            0.00000 [K]
	Block[ 3]            0.00000 [K]
	Block[ 4]            0.00000 [K]
	------------------------------------------------------------------------------
	Average              0.00000 [K] +/-            0.00000 [K]

Average Cation Bond-Bend cross term energy:
==============================================
	Block[ 0]            0.00000 [K]
	Block[ 1]            0.00000 [K]
	Block[ 2]            0.00000 [K]
	Block[ 3]            0.00000 [K]
	Block[ 4]            0.00000 [K]
	------------------------------------------------------------------------------
	Average              0.00000 [K] +/-            0.00000 [K]

Average Cation Bond-Torsion cross term energy:
==============================================
	Block[ 0]            0.00000 [K]
	Block[ 1]            0.00000 [K]
	Block[ 2]            0.00000 [K]
	Block[ 3]            0.00000 [K]
	Block[ 4]            0.00000 [K]
	------------------------------------------------------------------------------
	Average              0.00000 [K] +/-            0.00000 [K]

Average Cation Bend-Torsion cross term energy:
==============================================
	Block[ 0]            0.00000 [K]
	Block[ 1]            0.00000 [K]
	Block[ 2]            0.00000 [K]
	Block[ 3]            0.00000 [K]
	Block[ 4]            0.00000 [K]
	------------------------------------------------------------------------------
	Average              0.00000 [K] +/-            0.00000 [K]

Average Cation Intra Van der Waals energy:
==========================================
	Block[ 0]            0.00000 [K]
	Block[ 1]            0.00000 [K]
	Block[ 2]            0.00000 [K]
	Block[ 3]            0.00000 [K]
	Block[ 4]            0.00000 [K]
	------------------------------------------------------------------------------
	Average              0.00000 [K] +/-            0.00000 [K]

Average Cation Intra charge-charge Coulomb energy:
====================================
	Block[ 0]            0.00000 [K]
	Block[ 1]            0.00000 [K]
	Block[ 2]            0.00000 [K]
	Block[ 3]            0.00000 [K]
	Block[ 4]            0.00000 [K]
	------------------------------------------------------------------------------
	Average              0.00000 [K] +/-            0.00000 [K]

Average Cation Intra charge-bonddipole Coulomb energy:
====================================
	Block[ 0]            0.00000 [K]
	Block[ 1]            0.00000 [K]
	Block[ 2]            0.00000 [K]
	Block[ 3]            0.00000 [K]
	Block[ 4]            0.00000 [K]
	------------------------------------------------------------------------------
	Average              0.00000 [K] +/-            0.00000 [K]

Average Cation Intra bonddipole-bonddipole Coulomb energy:
====================================
	Block[ 0]            0.00000 [K]
	Block[ 1]            0.00000 [K]
	Block[ 2]            0.00000 [K]
	Block[ 3]            0.00000 [K]
	Block[ 4]            0.00000 [K]
	------------------------------------------------------------------------------
	Average              0.00000 [K] +/-            0.00000 [K]

Average Host-Host energy:
=========================
	Block[ 0] 0.00000            Van der Waals: 0.00000            Coulomb: 0.00000            [K]
	Block[ 1] 0.00000            Van der Waals: 0.00000            Coulomb: 0.00000            [K]
	Block[ 2] 0.00000            Van der Waals: 0.00000            Coulomb: 0.00000            [K]
	Block[ 3] 0.00000            Van der Waals: 0.00000            Coulomb: 0.00000            [K]
	Block[ 4] 0.00000            Van der Waals: 0.00000            Coulomb: 0.00000            [K]
	------------------------------------------------------------------------------
	Average   0.00000            Van der Waals: 0.000000           Coulomb: 0.00000            [K]
	      +/- 0.00000                       +/- 0.000000                +/- 0.00000            [K]

Average Adsorbate-Adsorbate energy:
===================================
	Block[ 0] -56750.06313       Van der Waals: -56750.06313       Coulomb: 0.00000            [K]
	Block[ 1] -55430.71565       Van der Waals: -55430.71565       Coulomb: 0.00000            [K]
	Block[ 2] -55900.07933       Van der Waals: -55900.07933       Coulomb: 0.00000            [K]
	Block[ 3] -56208.68666       Van der Waals: -56208.68666       Coulomb: 0.00000            [K]
	Block[ 4] -57418.62125       Van der Waals: -57418.62125       Coulomb: 0.00000            [K]
	------------------------------------------------------------------------------
	Average   -56341.63320       Van der Waals: -56341.633203      Coulomb: 0.00000            [K]
	      +/- 1376.70147                    +/- 1376.701466             +/- 0.00000            [K]

Average Cation-Cation energy:
=============================
	Block[ 0] 0.00000            Van der Waals: 0.00000            Coulomb: 0.00000            [K]
	Block[ 1] 0.00000            Van der Waals: 0.00000            Coulomb: 0.00000            [K]
	Block[ 2] 0.00000            Van der Waals: 0.00000            Coulomb: 0.00000            [K]
	Block[ 3] 0.00000            Van der Waals: 0.00000            Coulomb: 0.00000            [K]
	Block[ 4] 0.00000            Van der Waals: 0.00000            Coulomb: 0.00000            [K]
	------------------------------------------------------------------------------
	Average   0.00000            Van der Waals: 0.000000           Coulomb: 0.00000            [K]
	      +/- 0.00000                       +/- 0.000000                +/- 0.00000            [K]

Average Host-Adsorbate energy:
==============================
	Block[ 0] -54093.90173       Van der Waals: -54093.90173       Coulomb: 0.00000            [K]
	Block[ 1] -54701.23194       Van der Waals: -54701.23194       Coulomb: 0.00000            [K]
	Block[ 2] -55844.42701       Van der Waals: -55844.42701       Coulomb: 0.00000            [K]
	Block[ 3] -57026.14364       Van der Waals: -57026.14364       Coulomb: 0.00000            [K]
	Block[ 4] -56087.43542       Van der Waals: -56087.43542       Coulomb: 0.00000            [K]
	------------------------------------------------------------------------------
	Average   -55550.62795       Van der Waals: -55550.627948      Coulomb: 0.00000            [K]
	      +/- 2077.52767                    +/- 2077.527673             +/- 0.00000            [K]

Average Host-Cation energy:
===========================
	Block[ 0] 0.00000            Van der Waals: 0.00000            Coulomb: 0.00000            [K]
	Block[ 1] 0.00000            Van der Waals: 0.00000            Coulomb: 0.00000            [K]
	Block[ 2] 0.00000            Van der Waals: 0.00000            Coulomb: 0.00000            [K]
	Block[ 3] 0.00000            Van der Waals: 0.00000            Coulomb: 0.00000            [K]
	Block[ 4] 0.00000            Van der Waals: 0.00000            Coulomb: 0.00000            [K]
	------------------------------------------------------------------------------
	Average   0.00000            Van der Waals: 0.000000           Coulomb: 0.00000            [K]
	      +/- 0.00000                       +/- 0.000000                +/- 0.00000            [K]

Average Adsorbate-Cation energy:
================================
	Block[ 0] 0.00000            Van der Waals: 0.00000            Coulomb: 0.00000            [K]
	Block[ 1] 0.00000            Van der Waals: 0.00000            Coulomb: 0.00000            [K]
	Block[ 2] 0.00000            Van der Waals: 0.00000            Coulomb: 0.00000            [K]
	Block[ 3] 0.00000            Van der Waals: 0.00000            Coulomb: 0.00000            [K]
	Block[ 4] 0.00000            Van der Waals: 0.00000            Coulomb: 0.00000            [K]
	------------------------------------------------------------------------------
	Average   0.00000            Van der Waals: 0.000000           Coulomb: 0.00000            [K]
	      +/- 0.00000                       +/- 0.000000                +/- 0.00000            [K]

Host polarization energy:
=======================
	Block[ 0]            0.00000 [K]
	Block[ 1]            0.00000 [K]
	Block[ 2]            0.00000 [K]
	Block[ 3]            0.00000 [K]
	Block[ 4]            0.00000 [K]
	------------------------------------------------------------------------------
	Average              0.00000 [K] +/-            0.00000 [K]

Adsorbate polarization energy:
=======================
	Block[ 0]            0.00000 [K]
	Block[ 1]            0.00000 [K]
	Block[ 2]            0.00000 [K]
	Block[ 3]            0.00000 [K]
	Block[ 4]            0.00000 [K]
	------------------------------------------------------------------------------
	Average              0.00000 [K] +/-            0.00000 [K]

Cation polarization energy:
=======================
	Block[ 0]            0.00000 [K]
	Block[ 1]            0.00000 [K]
	Block[ 2]            0.00000 [K]
	Block[ 3]            0.00000 [K]
	Block[ 4]            0.00000 [K]
	------------------------------------------------------------------------------
	Average              0.00000 [K] +/-            0.00000 [K]

Host back-polarization energy:
=======================
	Block[ 0]            0.00000 [K]
	Block[ 1]            0.00000 [K]
	Block[ 2]            0.00000 [K]
	Block[ 3]            0.00000 [K]
	Block[ 4]            0.00000 [K]
	------------------------------------------------------------------------------
	Average              0.00000 [K] +/-            0.00000 [K]

Adsorbate back-polarization energy:
=======================
	Block[ 0]            0.00000 [K]
	Block[ 1]            0.00000 [K]
	Block[ 2]            0.00000 [K]
	Block[ 3]            0.00000 [K]
	Block[ 4]            0.00000 [K]
	------------------------------------------------------------------------------
	Average              0.00000 [K] +/-            0.00000 [K]

Cation back-polarization energy:
=======================
	Block[ 0]            0.00000 [K]
	Block[ 1]            0.00000 [K]
	Block[ 2]            0.00000 [K]
	Block[ 3]            0.00000 [K]
	Block[ 4]            0.00000 [K]
	------------------------------------------------------------------------------
	Average              0.00000 [K] +/-            0.00000 [K]

Tail-correction energy:
=======================
	Block[ 0]       -15892.50882 [K]
	Block[ 1]       -15781.50091 [K]
	Block[ 2]       -15826.44983 [K]
	Block[ 3]       -15995.36465 [K]
	Block[ 4]       -16171.17902 [K]
	------------------------------------------------------------------------------
	Average         -15933.40065 [K] +/-          277.93847 [K]

Distance-constraints energy:
=======================
	Block[ 0]            0.00000 [K]
	Block[ 1]            0.00000 [K]
	Block[ 2]            0.00000 [K]
	Block[ 3]            0.00000 [K]
	Block[ 4]            0.00000 [K]
	------------------------------------------------------------------------------
	Average              0.00000 [K] +/-            0.00000 [K]

Angle-constraints energy:
=======================
	Block[ 0]            0.00000 [K]
	Block[ 1]            0.00000 [K]
	Block[ 2]            0.00000 [K]
	Block[ 3]            0.00000 [K]
	Block[ 4]            0.00000 [K]
	------------------------------------------------------------------------------
	Average              0.00000 [K] +/-            0.00000 [K]

Dihedral-constraints energy:
=======================
	Block[ 0]            0.00000 [K]
	Block[ 1]            0.00000 [K]
	Block[ 2]            0.00000 [K]
	Block[ 3]            0.00000 [K]
	Block[ 4]            0.00000 [K]
	------------------------------------------------------------------------------
	Average              0.00000 [K] +/-            0.00000 [K]

Inversion-bend constraints energy:
=======================
	Block[ 0]            0.00000 [K]
	Block[ 1]            0.00000 [K]
	Block[ 2]            0.00000 [K]
	Block[ 3]            0.00000 [K]
	Block[ 4]            0.00000 [K]
	------------------------------------------------------------------------------
	Average              0.00000 [K] +/-            0.00000 [K]

Out-of-plane-distance constraints energy:
=======================
	Block[ 0]            0.00000 [K]
	Block[ 1]            0.00000 [K]
	Block[ 2]            0.00000 [K]
	Block[ 3]            0.00000 [K]
	Block[ 4]            0.00000 [K]
	------------------------------------------------------------------------------
	Average              0.00000 [K] +/-            0.00000 [K]

Exclusion-constraints energy:
=======================
	Block[ 0]            0.00000 [K]
	Block[ 1]            0.00000 [K]
	Block[ 2]            0.00000 [K]
	Block[ 3]            0.00000 [K]
	Block[ 4]            0.00000 [K]
	------------------------------------------------------------------------------
	Average              0.00000 [K] +/-            0.00000 [K]

Total energy:
=============
	Block[ 0]      -126736.47368 [K]
	Block[ 1]      -125913.44849 [K]
	Block[ 2]      -127570.95617 [K]
	Block[ 3]      -129230.19495 [K]
	Block[ 4]      -129677.23569 [K]
	------------------------------------------------------------------------------
	Average        -127825.66180 [K] +/-         2871.76666 [K]

Number of molecules:
====================

Component 0 [Ar]
-------------------------------------------------------------
	Block[ 0] 100.21667          [-]
	Block[ 1] 99.60000           [-]
	Block[ 2] 99.85000           [-]
	Block[ 3] 100.78333          [-]
	Block[ 4] 101.75000          [-]
	------------------------------------------------------------------------------
	Average                                    100.4400000000 +/-       1.5329854678 [-]
	Average loading absolute [molecules/unit cell]        3.5871428571 +/-       0.0547494810 [-]
	Average loading absolute [mol/kg framework]         74.6653429060 +/-       1.1395946398 [-]
	Average loading absolute [milligram/gram framework]       2982.8804490960 +/-      45.5268058604 [-]
	Average loading absolute [cm^3 (STP)/gr framework]       1673.5471850815 +/-      25.5428466188 [-]
	Average loading absolute [cm^3 (STP)/cm^3 framework]        637.0035858360 +/-       9.7223938672 [-]

	Block[ 0] 100.21667          [-]
	Block[ 1] 99.60000           [-]
	Block[ 2] 99.85000           [-]
	Block[ 3] 100.78333          [-]
	Block[ 4] 101.75000          [-]
	------------------------------------------------------------------------------
	Average                                     99.4400000000 +/-       1.5329854678 [-]
	Average loading excess [molecules/unit cell]        3.5514285714 +/-       0.0547494810 [-]
	Average loading excess [mol/kg framework]         73.9219603602 +/-       1.1395946398 [-]
	Average loading excess [milligram/gram framework]       2953.1823163889 +/-      45.5268058604 [-]
	Average loading excess [cm^3 (STP)/gr framework]       1656.8850267275 +/-      25.5428466188 [-]
	Average loading excess [cm^3 (STP)/cm^3 framework]        630.6614553518 +/-       9.7223938671 [-]


Average Widom Rosenbluth factor:
================================
	Block[ 0] 0 [-]
	Block[ 1] 0 [-]
	Block[ 2] 0 [-]
	Block[ 3] 0 [-]
	Block[ 4] 0 [-]
	------------------------------------------------------------------------------
	[Ar] Average Widom Rosenbluth-weight:   0 +/- 0.000000 [-]

Average Widom chemical potential:
=================================
	Block[ 0] 0 [-]
	Block[ 1] 0 [-]
	Block[ 2] 0 [-]
	Block[ 3] 0 [-]
	Block[ 4] 0 [-]
	------------------------------------------------------------------------------
	[Ar] Average chemical potential:   0 +/- 0.000000 [K]

Average Widom Ideal-gas contribution:
=====================================
	Block[ 0] 0 [-]
	Block[ 1] 0 [-]
	Block[ 2] 0 [-]
	Block[ 3] 0 [-]
	Block[ 4] 0 [-]
	------------------------------------------------------------------------------
	[Ar] Average Widom Ideal-gas chemical potential:   0 +/- 0.000000 [-]

Average Widom excess contribution:
==================================
	Block[ 0] 0 [-]
	Block[ 1] 0 [-]
	Block[ 2] 0 [-]
	Block[ 3] 0 [-]
	Block[ 4] 0 [-]
	------------------------------------------------------------------------------
	[Ar] Average Widom excess chemical potential:   0 +/- 0.000000 [-]

Average Gibbs Widom Rosenbluth factor:
======================================
	Block[ 0] 0 [-]
	Block[ 1] 0 [-]
	Block[ 2] 0 [-]
	Block[ 3] 0 [-]
	Block[ 4] 0 [-]
	------------------------------------------------------------------------------
	[Ar] Average Gibbs Widom Rosenbluth-weight:   0 +/- 0.000000 [-]

Average Gibbs Widom chemical potential:
=======================================
	Block[ 0] 0 [-]
	Block[ 1] 0 [-]
	Block[ 2] 0 [-]
	Block[ 3] 0 [-]
	Block[ 4] 0 [-]
	------------------------------------------------------------------------------
	[Ar] Average Gibbs chemical potential:   0 +/- 0.000000 [K]

Average Gibbs Widom Ideal-gas contribution:
===========================================
	Block[ 0] 0 [-]
	Block[ 1] 0 [-]
	Block[ 2] 0 [-]
	Block[ 3] 0 [-]
	Block[ 4] 0 [-]
	------------------------------------------------------------------------------
	[Ar] Average Gibbs Ideal-gas chemical potential:   0 +/- 0.000000 [-]

Average Gibbs Widom excess contribution:
===========================================
	Block[ 0] 0 [-]
	Block[ 1] 0 [-]
	Block[ 2] 0 [-]
	Block[ 3] 0 [-]
	Block[ 4] 0 [-]
	------------------------------------------------------------------------------
	[Ar] Average Gibbs excess chemical potential:   0 +/- 0.000000 [-]

Average Henry coefficient:
==========================
	Block[ 0] 0 [mol/kg/Pa]
	Block[ 1] 0 [mol/kg/Pa]
	Block[ 2] 0 [mol/kg/Pa]
	Block[ 3] 0 [mol/kg/Pa]
	Block[ 4] 0 [mol/kg/Pa]
	------------------------------------------------------------------------------
	[Ar] Average Henry coefficient:  0 +/- 0 [mol/kg/Pa]

Average adsorption energy <U_gh>_1-<U_h>_0 obtained from Widom-insertion:
(Note: the total heat of adsorption is dH=<U_gh>_1-<U_h>_0 - <U_g> - RT)
=========================================================================

Simulation finished,  0 warnings


Mon Nov 16 20:12:58 2020
Simulation finished on Monday, November 16.
The end time was 08:12 PM.

