#     Step Nr.          Time[fs]        Kin.[a.u.]          Temp[K]            Pot.[a.u.]        Cons Qty[a.u.]        UsedTime[s]
         0            0.000000         0.004275201       300.000000000        -8.081127671        -8.076852471         0.000000000
         1            1.000000         0.004073202       285.825335310        -8.081124965        -8.076852477         9.484390020
         2            2.000000         0.003810926       267.420869218        -8.081117312        -8.076852475         7.704087019
