# vtk DataFile Version 1.0
Cube
ASCII

DATASET POLYDATA
POINTS 133 float
5.201865 1.405752 16.559942
5.201865 18.445752 16.559942
11.219469 9.981993 16.373952
11.051412 1.049347 3.485504
11.051412 18.089347 3.485504
1.450190 11.314048 3.560449
18.670190 11.314048 3.560449
11.738216 0.405350 16.568338
11.738216 17.445350 16.568338
-0.712124 14.343194 16.361107
16.507876 14.343194 16.361107
0.272141 4.731036 16.658872
17.492141 4.731036 16.658872
1.764496 11.681870 16.611683
7.480208 9.832354 16.573436
8.607894 2.886185 16.659374
1.737306 5.880838 13.140440
18.957306 5.880838 13.140440
7.980661 -1.427248 3.296678
7.980661 15.612752 3.296678
4.996037 13.311294 3.726382
7.450074 5.830207 9.912176
6.347987 3.477683 13.434695
9.154939 8.351283 3.445241
-0.735225 5.789026 3.374462
16.484775 5.789026 3.374462
13.533152 3.655523 3.169795
15.154291 11.018142 16.733131
14.447248 7.618696 6.700454
1.601470 1.705883 16.560142
1.601470 18.745883 16.560142
18.821470 1.705883 16.560142
18.821470 18.745883 16.560142
11.804174 13.644462 10.559029
9.618923 6.618512 7.333978
15.076634 4.737053 9.914558
9.479170 9.501960 10.230048
-1.486352 3.862763 6.230315
15.733648 3.862763 6.230315
5.198330 6.777904 13.432591
7.021863 6.181152 16.591209
-1.291138 9.499113 3.475980
15.928862 9.499113 3.475980
7.167575 2.649059 3.454741
1.847434 -1.267302 10.179981
1.847434 15.772698 10.179981
5.029117 8.914386 9.725770
5.564685 11.070313 13.568410
15.014515 13.337367 3.393180
1.922157 9.884820 13.305932
0.315376 8.028688 9.607141
17.535376 8.028688 9.607141
13.390213 14.663774 6.210360
8.840724 1.479262 6.540911
8.840724 18.519262 6.540911
-0.215708 13.634921 6.719743
17.004292 13.634921 6.719743
-0.040452 0.422789 13.179263
-0.040452 17.462789 13.179263
17.179548 0.422789 13.179263
17.179548 17.462789 13.179263
15.231859 3.324270 13.690870
8.803077 11.839151 3.465287
13.489267 11.293988 13.730720
11.360410 14.276898 3.371283
14.046916 14.992125 13.196230
13.803622 4.393059 16.698066
7.268426 9.770720 7.028548
3.763518 4.489810 16.658653
10.361775 4.928095 3.834675
2.801173 2.448501 13.459324
5.458293 -0.180208 12.484253
5.458293 16.859792 12.484253
6.241472 6.125391 3.311093
13.129503 7.591373 3.325140
10.317521 11.955358 7.336264
9.297980 12.041399 12.761158
13.787488 10.044229 9.779268
15.435221 8.359582 13.147321
2.588580 15.282200 16.511575
4.548022 0.050567 3.582623
4.548022 17.090567 3.582623
1.227189 6.502295 6.348495
18.447189 6.502295 6.348495
0.683421 2.332938 10.166400
17.903421 2.332938 10.166400
12.865412 13.941079 16.531806
11.966147 6.168999 10.802064
8.199761 -0.563338 16.617035
8.199761 16.476662 16.617035
9.260411 13.110515 16.131880
10.517381 6.322269 16.581572
6.280076 3.994640 6.529143
12.126853 2.812978 8.309543
6.983542 14.967104 6.814023
5.729292 13.645630 16.392880
-1.582337 0.681015 7.141649
-1.582337 17.721015 7.141649
15.637663 0.681015 7.141649
15.637663 17.721015 7.141649
13.994303 1.315190 10.955813
13.994303 18.355190 10.955813
2.332105 1.328989 6.399521
2.332105 18.368989 6.399521
2.106671 11.537978 8.581430
2.645155 5.253303 9.310408
11.092096 4.048938 13.778364
10.131797 8.438897 13.453944
12.428338 10.793258 3.293462
1.326924 13.661976 13.261650
18.546924 13.661976 13.261650
13.912112 11.165300 6.569125
6.483546 12.874815 9.872219
2.742854 7.475646 3.400714
3.312409 3.864602 3.611551
15.085922 0.824916 16.412139
15.085922 17.864916 16.412139
13.794247 7.779536 16.580102
-0.072971 2.254296 3.160053
17.147029 2.254296 3.160053
3.763823 8.413982 16.705825
-0.008742 8.350254 16.833965
17.211258 8.350254 16.833965
8.718968 -1.349877 10.486446
8.718968 15.690123 10.486446
0.877787 -1.474862 3.399850
0.877787 15.565138 3.399850
18.097787 -1.474862 3.399850
18.097787 15.565138 3.399850
5.703058 9.682611 3.526684
14.238442 -0.032297 3.321655
14.238442 17.007703 3.321655
4.701029 7.454627 6.361818
LINES 0 0
POINT_DATA 133
SCALARS my_scalars float
LOOKUP_TABLE default
1.88
1.88
1.88
1.88
1.88
1.88
1.88
1.88
1.88
1.88
1.88
1.88
1.88
1.88
1.88
1.88
1.88
1.88
1.88
1.88
1.88
1.88
1.88
1.88
1.88
1.88
1.88
1.88
1.88
1.88
1.88
1.88
1.88
1.88
1.88
1.88
1.88
1.88
1.88
1.88
1.88
1.88
1.88
1.88
1.88
1.88
1.88
1.88
1.88
1.88
1.88
1.88
1.88
1.88
1.88
1.88
1.88
1.88
1.88
1.88
1.88
1.88
1.88
1.88
1.88
1.88
1.88
1.88
1.88
1.88
1.88
1.88
1.88
1.88
1.88
1.88
1.88
1.88
1.88
1.88
1.88
1.88
1.88
1.88
1.88
1.88
1.88
1.88
1.88
1.88
1.88
1.88
1.88
1.88
1.88
1.88
1.88
1.88
1.88
1.88
1.88
1.88
1.88
1.88
1.88
1.88
1.88
1.88
1.88
1.88
1.88
1.88
1.88
1.88
1.88
1.88
1.88
1.88
1.88
1.88
1.88
1.88
1.88
1.88
1.88
1.88
1.88
1.88
1.88
1.88
1.88
1.88
1.88
VECTORS vectors float
0.4375 0 0
0.4375 0 0
0.4375 0 0
0.4375 0 0
0.4375 0 0
0.4375 0 0
0.4375 0 0
0.4375 0 0
0.4375 0 0
0.4375 0 0
0.4375 0 0
0.4375 0 0
0.4375 0 0
0.4375 0 0
0.4375 0 0
0.4375 0 0
0.4375 0 0
0.4375 0 0
0.4375 0 0
0.4375 0 0
0.4375 0 0
0.4375 0 0
0.4375 0 0
0.4375 0 0
0.4375 0 0
0.4375 0 0
0.4375 0 0
0.4375 0 0
0.4375 0 0
0.4375 0 0
0.4375 0 0
0.4375 0 0
0.4375 0 0
0.4375 0 0
0.4375 0 0
0.4375 0 0
0.4375 0 0
0.4375 0 0
0.4375 0 0
0.4375 0 0
0.4375 0 0
0.4375 0 0
0.4375 0 0
0.4375 0 0
0.4375 0 0
0.4375 0 0
0.4375 0 0
0.4375 0 0
0.4375 0 0
0.4375 0 0
0.4375 0 0
0.4375 0 0
0.4375 0 0
0.4375 0 0
0.4375 0 0
0.4375 0 0
0.4375 0 0
0.4375 0 0
0.4375 0 0
0.4375 0 0
0.4375 0 0
0.4375 0 0
0.4375 0 0
0.4375 0 0
0.4375 0 0
0.4375 0 0
0.4375 0 0
0.4375 0 0
0.4375 0 0
0.4375 0 0
0.4375 0 0
0.4375 0 0
0.4375 0 0
0.4375 0 0
0.4375 0 0
0.4375 0 0
0.4375 0 0
0.4375 0 0
0.4375 0 0
0.4375 0 0
0.4375 0 0
0.4375 0 0
0.4375 0 0
0.4375 0 0
0.4375 0 0
0.4375 0 0
0.4375 0 0
0.4375 0 0
0.4375 0 0
0.4375 0 0
0.4375 0 0
0.4375 0 0
0.4375 0 0
0.4375 0 0
0.4375 0 0
0.4375 0 0
0.4375 0 0
0.4375 0 0
0.4375 0 0
0.4375 0 0
0.4375 0 0
0.4375 0 0
0.4375 0 0
0.4375 0 0
0.4375 0 0
0.4375 0 0
0.4375 0 0
0.4375 0 0
0.4375 0 0
0.4375 0 0
0.4375 0 0
0.4375 0 0
0.4375 0 0
0.4375 0 0
0.4375 0 0
0.4375 0 0
0.4375 0 0
0.4375 0 0
0.4375 0 0
0.4375 0 0
0.4375 0 0
0.4375 0 0
0.4375 0 0
0.4375 0 0
0.4375 0 0
0.4375 0 0
0.4375 0 0
0.4375 0 0
0.4375 0 0
0.4375 0 0
0.4375 0 0
0.4375 0 0
0.4375 0 0
