Compiler and run-time data
===========================================================================
RASPA 2.0.37
Compiled as a 64-bits application
Compiler: gcc 9.3.0
Compile Date = Mar 18 2020, Compile Time = 13:46:53

Mon Nov 16 20:12:46 2020
Simulation started on Monday, November 16.
The start time was 08:12 PM.

Cpu data:    x86_64
Cpu Model:   MacBookPro11,4
Host name:   B126028.local
OS release:  19.6.0
OS type:     Darwin
OS version:  19H15


Simulation
===========================================================================
Dimensions: 3
Random number seed: 1605553966
RASPA directory set to: /Users/leopold/Personal/Programmierung/qm-codes/RASPA2/src/.libs
String appended to output-files: 
Number of cycles: 300
Number of initializing cycles: 300
Number of equilibration cycles: 0
Print every: 30
Rectangular boundary condition applied
Timestep: 0.000500
	Degrees of freedom:                        0
	Translational Degrees of freedom:          0
	Rotational Degrees of freedom:             0
	Degrees of freedom Framework:              0


Mutual consistent basic set of units:
======================================
Unit of temperature: Kelvin
Unit of length:      1e-10 [m]
Unit of time:        1e-12 [s]
Unit of mass:        1.66054e-27 [kg]
Unit of charge:      1.60218e-19 [C/particle]

Derived units and their conversion factors:
===========================================
Unit of energy:              1.66054e-23 [J]
Unit of force:               1.66054e-13 [N]
Unit of pressure:            1.66054e+07 [Pa]
Unit of velocity:            100 [m/s]
Unit of acceleration:        1e-08 [m^2/s]
Unit of diffusion:           1e-08 [m^2/s]
Unit of dipole moment:       1.60218e-29 [C.m]
Unit of electric potential:  0.000103643 [V]
Unit of electric field:      1.03643e+06 [V]
Unit of polarizability:      1.54587e-35 [-]
Unit of Coulomb potential:   167101.0800066561  [K]
Unit of dielectric constant: 0.0000154587       [s^2 C^2/(kg m^3)]
Unit of wave vectors:        5.3088374589       [cm^1]
Boltzmann constant:          0.8314464919       [-]

Internal conversion factors:
===========================================
Energy to Kelvin:                                    1.2027242847
FH correction factor                                 2.0211930949
Heat capacity conversion factor:                    10.0000088723
From Debye to internal units:                        4.8032067991
Isothermal compressibility conversion factor:        0.0000000602

Energy conversion factors:
===========================================
From mdyne/A to kcal/mol/A^2:           143.933
From mdyne/A to kj/mol/A^2:             602.214
From mdyne/A to K/A^2:                  72429.7
From mdyne A/rad^2 to kcal/mol/deg^2:   0.0438444


Properties computed
===========================================================================
Movies: no
Radial Distribution Function: no
Number of molecules GCMC histogram: no
Histogram of the molecule positions: no
Free energy profiles: no
Pore Size Distribution Function: no
End-to-end distance: no
Histogram of the energy of the system: no
Compute thermodynamic factors: no
Framework spacing histograms: no
Residence times histograms: no
Distance histograms: no
Bend Angle histograms: no
Dihedral angle histograms: no
Angle between planes histograms: no
Molecule properties: no
Infra-red spectra: no
Mean-squared displacement using modified order-N algorithm: no
Velocity-autocorrelation function modified order-N algorithm: no
Rotational velocity-autocorrelation function modified order-N algorithm: no
Molecular orientation-autocorrelation function modified order-N algorithm: no
Bond orientation-autocorrelation function modified order-N algorithm: no
Mean-squared displacement (conventional algorithm): no
Velocity-autocorrelation function (conventional algorithm): no
3D density grid for adsorbates: no
Compute cation an/or adsorption sites: no
dcTST snapshots: no
Compute pressure and stress: no


VTK
===========================================================================
VTK fractional-range position framework atoms: [-0.001000,1.001000] [-0.001000,1.001000] [-0.001000,1.001000]
VTK fractional-range position framework bonds: [-0.151000,1.151000] [-0.151000,1.151000] [-0.151000,1.151000]
VTK fractional-range com-position adsorbate molecules: [-0.101000,1.101000] [-0.101000,1.101000] [-0.101000,1.101000]
VTK fractional-range com-position cation molecules: [-0.101000,1.101000] [-0.101000,1.101000] [-0.101000,1.101000]
	3D free energy grid made for the full simulation-cell


Thermo/Baro-stat NHC parameters
===========================================================================
External temperature: 87 [K]
Beta: 0.0138244 [energy unit]
External Pressure: 100 [Pa]


Thermostat chain-length: 3
Timescale parameter for thermostat: 0.150000 [ps]
Barostat chain-length:   3
Timescale parameter for barostat:   0.150000 [ps]

Number of Yoshida-Suzuki decomposition steps: 5
Number of respa steps: 5


Method and settings for electrostatics
===============================================================================
Dielectric constant of the medium : 1.000000
Charge from charge-equilibration: no
No electrostatics


CFC-RXMC parameters
===========================================================================
Number of reactions: 0


Rattle parameters
===========================================================================
Distance constraint type: r^2-r^2_0
Bend angle constraint type: theta-theta_0
Dihedral angle constraint type: phi-phi_0
Inversion-bend angle constraint type: chi-chi_0
Out-of-plane distance constraint type: r-r_0


Spectra parameters
===========================================================================
Compute normal modes: no


Minimization parameters
===========================================================================
Generalized coordinates are: Cartesian center-of-mass, elements of the orientational matrix p1,p2,p3 and strain
Potential derivatives are evaluated: analytically
Translation of the system is removed from the generalized Hessian: no
Rotation of the system is removed from the generalized Hessian: no
Maximum step-length: 0.3
Convergence factor: 1
Maximum number of minimization steps: 10000
Use gradients in the line-minimizations: yes
RMS gradient tolerance: 1e-06
Maximum gradient tolerance: 1e-06

Distance constraints: 0
Angle constraints: 0
Dihedral constraints: 0

Improper dihedral constraints: 0

Inversion-bend constraints: 0

Out-of-plane constraints: 0

Harmonic distance constraints: 0
Harmonic angle constraints: 0
Harmonic dihedral constraints: 0

Dihedral mid-point measurements: 0

All framework atoms are fixed

Fixed adsorbate atoms:  
Fixed adsorbate groups (center-of-mass):  
Fixed adsorbate groups (orientation):  

Fixed cation atoms:  
Fixed cation groups (center-of-mass):  
Fixed cation groups (orientation):  


dcTST parameters
===========================================================================
Free energy profiles computed: no
Free energy profiles written every 5000 cycles
Free energy mapping: mapped to a,b,c-coordinates
BarrierPosition:       0.0000000000       0.0000000000       0.0000000000
BarrierNormal:         0.0000000000       0.0000000000       0.0000000000
Start with a molecule on top of the barrier: no
Maximum distance to barrier (e.g. distance to minumum free energy):       0.0000000000 [A]
Maximum trajectory time:      10.0000000000 [ps]
Each configuration is used with 5 different initial velocities


Cbmc parameters
===========================================================================
Biasing method: using only the VDW part
Number of trial positions:                                       10
Number of trial positions (reinsertion):                         10
Number of trial positions (partial reinsertion):                 10
Number of trial positions (identity-change):                     10
Number of trial positions (Gibbs particle transfer):             10
Number of trial positions (insertion/deletion):                  10
Number of trial positions (Widom insertion):                     10
Number of trial positions coupled Torsion-selection:             100
Number of trial positions first bead:                            10
Number of trial positions first bead (reinsertion):              10
Number of trial positions first bead (partial reinsertion):      10
Number of trial positions first bead (identity-change):          10
Number of trial positions first bead (Gibbs particle transfer):  10
Number of trial positions first bead (insertion/deletion):       10
Number of trial positions first bead (Widom insertion):          10
Number of trial moves per open bead:                             150
Target acceptance ratio small-mc scheme:                         0.400000
Energy overlap criteria:                                         1e+07
Minimal Rosenbluth factor:                                       1e-150


Pseudo atoms: 3
===========================================================================
Pseudo Atom[   0] Name UNIT     Oxidation:          Element: H    pdb-name: H    Scat. Types:   1   1 Mass=1.000000000  B-factor:0.000   
                 Charge=1.000000000          Polarization=0.000000000  [A^3] (considered a charged atom and no polarization)  Interactions: yes
                 Anisotropic factor:    0.000 [-] (Absolute), Radius:    1.000 [A], Framework-atom:  no
Pseudo Atom[   1] Name Ar_gas   Oxidation: +0       Element: Ar   pdb-name: Ar   Scat. Types:  19  18 Mass=39.950000000 B-factor:1.000   
                 Charge=0.000000000          Polarization=0.000000000  [A^3] (considered a chargeless atom and no polarization)  Interactions: yes
                 Anisotropic factor:    0.000 [-] (Relative), Radius:    1.000 [A], Framework-atom:  no
Pseudo Atom[   2] Name C        Oxidation:          Element: C    pdb-name: C    Scat. Types:   7   6 Mass=12.010735897 B-factor:0.000   
                 Charge=0.000000000  (-na-)  Polarization=1.760000000  [A^3] (considered a chargeless atom and no polarization)  Interactions: yes
                 Anisotropic factor:    0.000 [-] (Absolute), Radius:    0.750 [A], Framework-atom: yes (charge definition not found)


Forcefield: Local
===========================================================================
Minimal distance: 1
CutOff VDW : 8.000000 (64.000000)
CutOff VDW switching on: 7.200000 (51.840000)
CutOff charge-charge : 12.000000 (144.000000)
CutOff charge-charge switching on: 7.800000 (60.840000)
CutOff charge-bonddipole : 12.000000 (144.000000)
CutOff charge-bondipole switching on: 8.400000 (70.560000)
CutOff bonddipole-bonddipole : 12.000000 (144.000000)
CutOff bonddipole-bondipole switching on: 9.000000 (81.000000)
Polarization is neglected
TailCorrections are used
All potentials are unshifted !!!!!!

General mixing rule: Lorentz-Berthelot mixing rules are used FIRST for cross terms
0 cross terms are overwritten using the individual mixing rules from the file 'force_field_mixing_rules.def'
and then 0 terms are overwritten using the specific interactions from the file 'force_field.def'

The force field and all the interactions:
 Ar_gas -  Ar_gas [LENNARD_JONES] p_0/k_B: 119.80000 [K], p_1: 3.40000 [A], shift/k_B:   0.00000000 [K], tailcorrection: yes
 Ar_gas -       C [LENNARD_JONES] p_0/k_B:  75.72159 [K], p_1: 3.43649 [A], shift/k_B:   0.00000000 [K], tailcorrection: yes
      C -       C [LENNARD_JONES] p_0/k_B:  47.86110 [K], p_1: 3.47299 [A], shift/k_B:   0.00000000 [K], tailcorrection: yes


MoleculeDefinitions:
===========================================================================
Component 0 [Ar] (Adsorbate molecule)

	MoleculeDefinitions: Local
	Component contains no atoms with charge
	Component contains no atoms with point dipoles (polarization)
	Component has a net charge of 0.000000

	Ideal chain Rosenbluth weight: 1
	Ideal chain total energy: 0.000000

	Critical temparure [K]: 150.860000
	Critical pressure [Pa]: 4898000.000000
	Acentric factor [-]: 0.000000

	RXMC partition factor ln(q/V) [ln(A^(-3))]:       0.0000000000

	Vapour=stable, Liquid=metastable

	MolFraction:           1.0000000000 [-]
	Compressibility:       0.9999693958 [-]

	Density of the bulk fluid phase:       0.0055230187 [kg/m^3]

	Binary mixture EOS parameters:  (0): 0.000000

	Amount of excess molecules:       0.0004094862 [-]

	Conversion factor molecules/unit cell -> mol/kg:      20.8147112840 [-]
	Conversion factor molecules/unit cell -> mg/g:     831.5477157974 [-]
	Conversion factor molecules/unit cell -> cm^3 STP/gr:     466.5404339136 [-]
	Conversion factor molecules/unit cell -> cm^3 STP/cm^3:     177.5796535584 [-]
	Conversion factor mol/kg -> cm^3 STP/gr:      22.4139757476 [-]
	Conversion factor mol/kg -> cm^3 STP/cm^3:       8.5314492781 [-]

	Partial pressure:       100.00000000000000 [Pa]
	                          0.75000000000000 [Torr]
	                          0.00100000000000 [bar]
	                          0.00098692326672 [atm]

	Fugacity coefficient:       0.9999693966 [-]

	Partial fugacity:        99.99693966264213 [Pa]
	                          0.74997704746982 [Torr]
	                          0.00099996939663 [bar]
	                          0.00098689306353 [atm]

	Molecule contains 1 number of atoms
		atom:    0  is of type:    1 [    Ar_gas] (group: 0)

	Molecule contains 0 chirality centers

	Molecule contains 1 number of groups

		group: 0 containing: 1 elements
		-------------------------------------------------
		the group represents a point particle
		Mass: 39.950000 [a.u.]
		Mass: 11.304027 [kg/m^3]

		Rotational Degrees of freedom: 0
		Diagonalized inertia vector:       0.0000000000
		                                   0.0000000000
		                                   0.0000000000
		number of atoms: 1
			element: 0 atom: 0 [    Ar_gas] Charge:  0.000000 Anisotropy: 0.000000 Position:  0.000000 -0.000000  0.000000 Connectivity: 0 ()
		number of permanent dipoles: 0
		number of polarizabilities: 0

		Dipole:           0.0000000000 [D]
		Quadrupole:       0.0000000000       0.0000000000       0.0000000000 [D Angstrom]
		Quadrupole tensor [D Angstrom]
				       0.0000000000       0.0000000000       0.0000000000
				       0.0000000000       0.0000000000       0.0000000000
				       0.0000000000       0.0000000000       0.0000000000

	Starting bead for growth               : 0

	Degrees of freedom                     : 0
	Translational degrees of freedom       : 0
	Rotational degrees of freedom          : 0
	Vibrational degrees of freedom         : 0
	Constraint degrees of freedom          : 0

	Number of atoms                        : 1

	Number of constraint bonds             : 0
	Number of constraint bends             : 0
	Number of constraint inversion bends   : 0
	Number of constraint torsions          : 0
	Number of constraint improper torsions : 0
	Number of constraint improper torsions : 0

	Number of bonds                        : 0
	Number of Urey-Bradleys                : 0
	Number of bends                        : 0
	Number of inversion bends              : 0
	Number of torsions                     : 0
	Number of improper torsions            : 0
	Number of improper torsions            : 0

	Number of bond/bond cross terms        : 0
	Number of bond/bend cross terms        : 0
	Number of bend/bend cross terms        : 0
	Number of stretch/torsion cross terms  : 0
	Number of bend/torsion cross terms     : 0

	Number of charges                      : 0
	Number of bond-dipoles                 : 0

	Number of intra Van der Waals                             : 0
	Number of intra charge-charge Coulomb                     : 0
	Number of intra charge-bonddipole Coulomb                 : 0
	Number of intra bonddipole-bonddipole Coulomb             : 0

	Number of excluded intra charge-charge Coulomb                     : 0
	Number of excluded intra charge-bonddipole Coulomb                 : 0
	Number of excluded intra bonddipole-bonddipole Coulomb             : 0

	Number of cbmc-config moves                               : 0

	Particle Moves:             
		ProbabilityTranslationMove:                  50.000000
			TranslationDirection:      XYZ
		Percentage of random translation moves:            0.000000
		Percentage of rotation moves:                      0.000000
		Percentage of random rotation moves:               0.000000
		Percentage of partial reinsertion moves:           0.000000
		Percentage of reinsertion moves:                   25.000000
		Percentage of reinsertion-in-place moves:          0.000000
		Percentage of reinsertion-in-plane moves:          0.000000
		Percentage of identity-change moves:               0.000000
		Percentage of swap (insert/delete) moves:          25.000000
		Percentage of CF swap lambda moves:                0.000000
		Percentage of CB/CFMC swap lambda moves:           0.000000
		Percentage of Widom insertion moves:               0.000000
		Percentage of CF-Widom insertion moves:            0.000000
		Percentage of Gibbs Widom insertion moves:         0.000000
		Percentage of surface-area moves:                  0.000000
		Percentage of Gibbs particle-transfer moves:       0.000000
		Percentage of Gibbs identity-change moves:         0.000000
		Percentage of CF Gibbs lambda-transfer moves:      0.000000
		Percentage of CB/CFMC Gibbs lambda-transfer moves: 0.000000
		Percentage of exchange frac./int. particle moves:  0.000000
		Percentage of fractional mol. to other box moves:  0.000000
		Percentage of lambda-change moves:                 0.000000
		Percentage of fractional to integer moves:         0.000000

	System Moves:
		Percentage of parallel-tempering moves:            0.000000
		Percentage of hyper-parallel-tempering moves:      0.000000
		Percentage of parallel-mol-fraction moves:         0.000000
			   Component A: 0 B: 1
		Percentage of chiral inversion moves:              0.000000
		Percentage of Hybrid-NVE moves:                    0.000000
		Percentage of Hybrid-NPH moves:                    0.000000
		Percentage of Hybrid-NPHPR moves:                  0.000000
		Percentage of volume-change moves:                 0.000000
		Percentage of box-shape-change moves:              0.000000
		Percentage of Gibbs volume-change moves:           0.000000
		Percentage of framework-change moves:              0.000000
		Percentage of framework-shift moves:               0.000000
		Percentage of reactive MC moves:                   0.000000

	Moves are restricted: No
	No biased sampling used for this component


	number of identity-config changes: 1
	--------------------------------------------
	nr fixed 1: 0 

	Number of pockets blocked in a unitcell: 0
		Pockets are NOT blocked for this component



Framework Status
===========================================================================
Lowenstein's rule obeyed by framework
	Framework is modelled as: rigid

	Number of charges:                               0
	Number of bonddipoles:                           0


System Properties
===========================================================================
Unit cell size: 2.460000 4.260000 20.000000
Cell angles (radians)  alpha: 1.570796 beta: 1.570796 gamma: 1.570796
Cell angles (degrees)  alpha: 90.000000 beta: 90.000000 gamma: 90.000000
Number of unitcells [a]: 7
Number of unitcells [b]: 4
Number of unitcells [c]: 1

RECTANGULAR Boundary conditions: alpha=beta=gamma=90 degrees

Cartesian axis A is collinear with crystallographic axis a
Cartesian axis B is collinear with (axb)xA
Cartesian axis C is collinear with (axb)

lengths of cell vectors:
 17.22000  17.04000  20.00000
cosines of cell angles:
  0.00000   0.00000   0.00000
perpendicular cell widths:
 17.22000  17.04000  20.00000
volume of the cell:  5868.575999999999 (A^3)

Orthogonalization matrix Box
Transforms fractional coordinates abc into orthonormal Cartesian coordinates xyz
Deorthogonalization matrix InverseBox
Transforms orthonormal Cartesian coordinates xyz into fractional coordinates xyz

Box[0]:
	   17.220000000000     0.000000000000     0.000000000000
	    0.000000000000    17.040000000000     0.000000000000
	    0.000000000000     0.000000000000    20.000000000000

Inverse box[0]:
	    0.058072009292    -0.000000000000    -0.000000000000
	    0.000000000000     0.058685446009    -0.000000000000
	    0.000000000000     0.000000000000     0.050000000000


Unitcell box[0]:
	    2.460000000000     0.000000000000     0.000000000000
	    0.000000000000     4.260000000000     0.000000000000
	    0.000000000000     0.000000000000    20.000000000000

Unitcell inverse box[0]:
	    0.406504065041    -0.000000000000    -0.000000000000
	    0.000000000000     0.234741784038    -0.000000000000
	    0.000000000000     0.000000000000     0.050000000000

lengths of cell vectors (inverse box):
  0.05807   0.05869   0.05000
cosines of cell angles (inverse box):
 -0.00000  -0.00000  -0.00000
perpendicular cell widths (inverse):
  0.05807   0.05869   0.05000
volume of the cell:  5868.575999999999 (A^3)

No replicas are used
Framework is simulated as 'rigid'
Number of framework atoms: 112
Number of framework atoms in the unit cell: 4
Framework Mass:  1345.202420437623 [g/mol]
Framework Density:   380.630789208962 [kg/m^3]    2.6272178403598 [cm^3/g]
Helium void fraction:    0.83810000
Available pore volume: 4918.45354560 [A^3]    2.20187127 [cm^3/g]
Conversion factor from molecule/unit cell -> kmol/m^3: 0.282954, kmol/m^3 accesible pore volume: 0.337614

Number Of Frameworks (per system): 1
----------------------------------------------------------------------
Framework name: framework_1
Space group: 1
	Identifier: 1
	short international Hermann-Mauguin symbol: P 1
	long international Hermann-Mauguin symbol: P 1
	Hall symbol: P 1
	Number of lattice translations: 1 [ (0,0,0) ]
	acentric/centric: acentric
	chiral: no
	enantiomorphic: no
	number of operators: 1
		'x,y,z'
Framework is simulated as 'rigid'
Shift: 0.000000 0.000000 0.000000
Number of framework atoms: 112
Number of asymmetric atoms: 4
Number of free framework atoms: 0
Number of fixed framework atoms: 112
Number of framework atoms in the unit cell: 4
Framework Mass:  1345.202420437623 [g/mol]
Framework Density:   380.630789208962 [kg/m^3]
Framework has net charge: 0.000000
         largest charge : 0.000000
         smallest charge: 0.000000

Using FULL Host-guest interaction calculation (for testing purposes)

Current Atom Status
===========================================================================
Number of framework atoms        : 112
Number of cations molecules      : 0
Number of adsorbate molecules    : 0
Component    0 :    0 molecules
Pseudo Atoms    0 [    UNIT]:    0 atoms
Pseudo Atoms    1 [  Ar_gas]:    0 atoms
Pseudo Atoms    2 [       C]:  112 atoms


Current (initial full energy) Energy Status
===========================================================================

Internal energy:
Host stretch energy:                                            0.00000000
Host UreyBradley energy:                                        0.00000000
Host bend energy:                                               0.00000000
Host inversion-bend energy:                                     0.00000000
Host torsion energy:                                            0.00000000
Host improper torsion energy:                                   0.00000000
Host out-of-plane energy:                                       0.00000000
Host stretch/stretch energy:                                    0.00000000
Host bend/bend energy:                                          0.00000000
Host stretch/bend energy:                                       0.00000000
Host stretch/torsion energy:                                    0.00000000
Host bend/torsion energy:                                       0.00000000

Adsorbate stretch energy:                                       0.00000000
Adsorbate UreyBradley energy:                                   0.00000000
Adsorbate bend energy:                                          0.00000000
Adsorbate inversion-bend energy:                                0.00000000
Adsorbate torsion energy:                                       0.00000000
Adsorbate improper torsion energy:                              0.00000000
Adsorbate out-of-plane energy:                                  0.00000000
Adsorbate stretch/stretch energy:                               0.00000000
Adsorbate bend/bend energy:                                     0.00000000
Adsorbate stretch/bend energy:                                  0.00000000
Adsorbate stretch/torsion energy:                               0.00000000
Adsorbate bend/torsion energy:                                  0.00000000
Adsorbate intra VDW energy:                                     0.00000000
Adsorbate intra charge-charge Coulomb energy:                   0.00000000
Adsorbate intra charge-bonddipole Coulomb energy:               0.00000000
Adsorbate intra bonddipole-bonddipole Coulomb energy:           0.00000000

Cation stretch energy:                                          0.00000000
Cation UreyBradley energy:                                      0.00000000
Cation bend energy:                                             0.00000000
Cation inversion-bend energy:                                   0.00000000
Cation torsion energy:                                          0.00000000
Cation improper torsion energy:                                 0.00000000
Cation out-of-plane energy:                                     0.00000000
Cation stretch/stretch energy:                                  0.00000000
Cation bend/bend energy:                                        0.00000000
Cation stretch/bend energy:                                     0.00000000
Cation stretch/torsion energy:                                  0.00000000
Cation bend/torsion energy:                                     0.00000000
Cation intra VDW energy:                                        0.00000000
Cation intra charge-charge Coulomb energy:                      0.00000000
Cation intra charge-bonddipole Coulomb energy:                  0.00000000
Cation intra bonddipole-bonddipole Coulomb energy:              0.00000000

Host/Host energy:                                             0.00000000
	Host/Host VDW energy:                                         0.00000000
	Host/Host Coulomb energy:                                     0.00000000
	Host/Host charge-charge Real energy:                          0.00000000
	Host/Host charge-charge Fourier energy:                       0.00000000
	Host/Host charge-bonddipole Real energy:                      0.00000000
	Host/Host charge-bonddipole Fourier energy:                   0.00000000
	Host/Host bondipole-bonddipole Real energy:                   0.00000000
	Host/Host bondipole-bonddipole Fourier energy:                0.00000000

Host/Adsorbate energy:                                        0.00000000
	Host/Adsorbate VDW energy:                                    0.00000000
	Host/Adsorbate Coulomb energy:                                0.00000000
	Host/Adsorbate charge-charge Real energy:                     0.00000000
	Host/Adsorbate charge-charge Fourier energy:                  0.00000000
	Host/Adsorbate charge-bonddipole Real energy:                 0.00000000
	Host/Adsorbate charge-bonddipole Fourier energy:              0.00000000
	Host/Adsorbate bondipole-bonddipole Real energy:              0.00000000
	Host/Adsorbate bondipole-bonddipole Fourier energy:           0.00000000

Host/Cation energy:                                           0.00000000
	Host/Cation VDW energy:                                       0.00000000
	Host/Cation Coulomb energy:                                   0.00000000
	Host/Cation charge-charge Real energy:                        0.00000000
	Host/Cation charge-charge Fourier energy:                     0.00000000
	Host/Cation charge-bonddipole Real energy:                    0.00000000
	Host/Cation charge-bonddipole Fourier energy:                 0.00000000
	Host/Cation bondipole-bonddipole Real energy:                 0.00000000
	Host/Cation bondipole-bonddipole Fourier energy:              0.00000000

Adsorbate/Adsorbate energy:                                        0.00000000
	Adsorbate/Adsorbate VDW energy:                                    0.00000000
	Adsorbate/Adsorbate Coulomb energy:                                0.00000000
	Adsorbate/Adsorbate charge-charge Real energy:                     0.00000000
	Adsorbate/Adsorbate charge-charge Fourier energy:                  0.00000000
	Adsorbate/Adsorbate charge-bonddipole Real energy:                 0.00000000
	Adsorbate/Adsorbate charge-bonddipole Fourier energy:              0.00000000
	Adsorbate/Adsorbate bondipole-bonddipole Real energy:              0.00000000
	Adsorbate/Adsorbate bondipole-bonddipole Fourier energy:           0.00000000

Adsorbate/Cation energy:                                           0.00000000
	Adsorbate/Cation VDW energy:                                       0.00000000
	Adsorbate/Cation Coulomb energy:                                   0.00000000
	Adsorbate/Cation charge-charge Real energy:                        0.00000000
	Adsorbate/Cation charge-charge Fourier energy:                     0.00000000
	Adsorbate/Cation charge-bonddipole Real energy:                    0.00000000
	Adsorbate/Cation charge-bonddipole Fourier energy:                 0.00000000
	Adsorbate/Cation bondipole-bonddipole Real energy:                 0.00000000
	Adsorbate/Cation bondipole-bonddipole Fourier energy:              0.00000000

Cation/Cation energy:                                           0.00000000
	Cation/Cation VDW energy:                                       0.00000000
	Cation/Cation Coulomb energy:                                   0.00000000
	Cation/Cation charge-charge Real energy:                        0.00000000
	Cation/Cation charge-charge Fourier energy:                     0.00000000
	Cation/Cation charge-bonddipole Real energy:                    0.00000000
	Cation/Cation charge-bonddipole Fourier energy:                 0.00000000
	Cation/Cation bondipole-bonddipole Real energy:                 0.00000000
	Cation/Cation bondipole-bonddipole Fourier energy:              0.00000000

Polarization energy:
	Host polarization energy:                                     0.00000000
	Adsorbate polarization energy:                                0.00000000
	Cation polarization energy:                                   0.00000000
	Host back-polarization energy:                                     0.00000000
	Adsorbate back-polarization energy:                                0.00000000
	Cation back-polarization energy:                                   0.00000000

Tail-correction energy:                                   -2930.79674349

Distance constraints energy:                                  0.00000000
Angle constraints energy:                                     0.00000000
Dihedral constraints energy:                                  0.00000000
Inversion-bend constraints energy:                            0.00000000
Out-of-plane distance constraints energy:                     0.00000000
Exclusion constraints energy:                                 0.00000000

===================================================================
Total energy: -2930.796743492017
	Total Van der Waals: 0.000000
	Total Coulomb: 0.000000

	Total Polarization: 0.000000







+++++++++++++++++++++++++++++++++++++++++++++++++++++++++++++++++++++++++
Starting simulation
+++++++++++++++++++++++++++++++++++++++++++++++++++++++++++++++++++++++++

[Init] Current cycle: 0 out of 300
========================================================================================================

Net charge: 0 (F: 0, A: 0, C: 0)
Current Box:  17.22000   0.00000   0.00000 [A]
               0.00000  17.04000   0.00000 [A]
               0.00000   0.00000  20.00000 [A]
Box-lengths:  17.22000  17.04000  20.00000 Box-angles:   90.00000  90.00000  90.00000 [degrees]
Volume: 5868.57600 [A^3]

Loadings per component:
----------------------------------------------------------------------------------------------------------------------------------------------------
Component 0 (Ar), current number of integer/fractional/reaction molecules: 0/0/0, density:   0.00000 [kg/m^3]
	absolute adsorption:   0.00000 [mol/uc],         0.0000 [mol/kg],              0.0000 [mg/g]
	                                                 0.0000 [cm^3 STP/g],          0.0000 [cm^3 STP/cm^3]
	excess adsorption:    -0.00001 [mol/uc],        -0.0003 [mol/kg],             -0.0122 [mg/g]
	                                                -0.0068 [cm^3 STP/g],         -0.0026 [cm^3 STP/cm^3]
----------------------------------------------------------------------------------------------------------------------------------------------------
Degrees of freedom: 0 0 0 0
Number of Framework-atoms:    112
Number of Adsorbates:           0 (0 integer, 0 fractional, 0 reaction)
Number of Cations:              0 (0 integer, 0 fractional, 0 reaction

Current total potential energy:             -2930.7967434920 [K]
	Current Host-Host energy:                     0.0000000000 [K]
	Current Host-Adsorbate energy:                0.0000000000 [K]
	Current Host-Cation energy:                   0.0000000000 [K]
	Current Adsorbate-Adsorbate energy:           0.0000000000 [K]
	Current Cation-Cation energy:                 0.0000000000 [K]
	Current Adsorbate-Cation energy:              0.0000000000 [K]



[Init] Current cycle: 30 out of 300
========================================================================================================

Net charge: 0 (F: 0, A: 0, C: 0)
Current Box:  17.22000   0.00000   0.00000 [A]
               0.00000  17.04000   0.00000 [A]
               0.00000   0.00000  20.00000 [A]
Box-lengths:  17.22000  17.04000  20.00000 Box-angles:   90.00000  90.00000  90.00000 [degrees]
Volume: 5868.57600 [A^3]

Loadings per component:
----------------------------------------------------------------------------------------------------------------------------------------------------
Component 0 (Ar), current number of integer/fractional/reaction molecules: 20/0/0, density: 226.08067 [kg/m^3]
	absolute adsorption:   0.71429 [mol/uc],        14.8677 [mol/kg],            593.9627 [mg/g]
	                                               333.2432 [cm^3 STP/g],        126.8426 [cm^3 STP/cm^3]
	excess adsorption:     0.71427 [mol/uc],        14.8673 [mol/kg],            593.9505 [mg/g]
	                                               333.2363 [cm^3 STP/g],        126.8400 [cm^3 STP/cm^3]
----------------------------------------------------------------------------------------------------------------------------------------------------
Degrees of freedom: 60 0 60 0
Number of Framework-atoms:    112
Number of Adsorbates:          20 (20 integer, 0 fractional, 0 reaction)
Number of Cations:              0 (0 integer, 0 fractional, 0 reaction

Current total potential energy:            -30809.2928035025 [K]
	Current Host-Host energy:                     0.0000000000 [K]
	Current Host-Adsorbate energy:           -23423.5934064287 [K]
	Current Host-Cation energy:                   0.0000000000 [K]
	Current Adsorbate-Adsorbate energy:       -2694.3855425626 [K]
	Current Cation-Cation energy:                 0.0000000000 [K]
	Current Adsorbate-Cation energy:              0.0000000000 [K]



[Init] Current cycle: 60 out of 300
========================================================================================================

Net charge: 0 (F: 0, A: 0, C: 0)
Current Box:  17.22000   0.00000   0.00000 [A]
               0.00000  17.04000   0.00000 [A]
               0.00000   0.00000  20.00000 [A]
Box-lengths:  17.22000  17.04000  20.00000 Box-angles:   90.00000  90.00000  90.00000 [degrees]
Volume: 5868.57600 [A^3]

Loadings per component:
----------------------------------------------------------------------------------------------------------------------------------------------------
Component 0 (Ar), current number of integer/fractional/reaction molecules: 30/0/0, density: 339.12101 [kg/m^3]
	absolute adsorption:   1.07143 [mol/uc],        22.3015 [mol/kg],            890.9440 [mg/g]
	                                               499.8648 [cm^3 STP/g],        190.2639 [cm^3 STP/cm^3]
	excess adsorption:     1.07141 [mol/uc],        22.3012 [mol/kg],            890.9318 [mg/g]
	                                               499.8579 [cm^3 STP/g],        190.2613 [cm^3 STP/cm^3]
----------------------------------------------------------------------------------------------------------------------------------------------------
Degrees of freedom: 90 0 90 0
Number of Framework-atoms:    112
Number of Adsorbates:          30 (30 integer, 0 fractional, 0 reaction)
Number of Cations:              0 (0 integer, 0 fractional, 0 reaction

Current total potential energy:            -45723.8387153439 [K]
	Current Host-Host energy:                     0.0000000000 [K]
	Current Host-Adsorbate energy:           -34501.2761820679 [K]
	Current Host-Cation energy:                   0.0000000000 [K]
	Current Adsorbate-Adsorbate energy:       -5496.4954346579 [K]
	Current Cation-Cation energy:                 0.0000000000 [K]
	Current Adsorbate-Cation energy:              0.0000000000 [K]



[Init] Current cycle: 90 out of 300
========================================================================================================

Net charge: 0 (F: 0, A: 0, C: 0)
Current Box:  17.22000   0.00000   0.00000 [A]
               0.00000  17.04000   0.00000 [A]
               0.00000   0.00000  20.00000 [A]
Box-lengths:  17.22000  17.04000  20.00000 Box-angles:   90.00000  90.00000  90.00000 [degrees]
Volume: 5868.57600 [A^3]

Loadings per component:
----------------------------------------------------------------------------------------------------------------------------------------------------
Component 0 (Ar), current number of integer/fractional/reaction molecules: 33/0/0, density: 373.03311 [kg/m^3]
	absolute adsorption:   1.17857 [mol/uc],        24.5316 [mol/kg],            980.0384 [mg/g]
	                                               549.8512 [cm^3 STP/g],        209.2903 [cm^3 STP/cm^3]
	excess adsorption:     1.17856 [mol/uc],        24.5313 [mol/kg],            980.0262 [mg/g]
	                                               549.8444 [cm^3 STP/g],        209.2877 [cm^3 STP/cm^3]
----------------------------------------------------------------------------------------------------------------------------------------------------
Degrees of freedom: 99 0 99 0
Number of Framework-atoms:    112
Number of Adsorbates:          33 (33 integer, 0 fractional, 0 reaction)
Number of Cations:              0 (0 integer, 0 fractional, 0 reaction

Current total potential energy:            -50696.2748364025 [K]
	Current Host-Host energy:                     0.0000000000 [K]
	Current Host-Adsorbate energy:           -37813.4725118038 [K]
	Current Host-Cation energy:                   0.0000000000 [K]
	Current Adsorbate-Adsorbate energy:       -6826.2249432308 [K]
	Current Cation-Cation energy:                 0.0000000000 [K]
	Current Adsorbate-Cation energy:              0.0000000000 [K]



[Init] Current cycle: 120 out of 300
========================================================================================================

Net charge: 0 (F: 0, A: 0, C: 0)
Current Box:  17.22000   0.00000   0.00000 [A]
               0.00000  17.04000   0.00000 [A]
               0.00000   0.00000  20.00000 [A]
Box-lengths:  17.22000  17.04000  20.00000 Box-angles:   90.00000  90.00000  90.00000 [degrees]
Volume: 5868.57600 [A^3]

Loadings per component:
----------------------------------------------------------------------------------------------------------------------------------------------------
Component 0 (Ar), current number of integer/fractional/reaction molecules: 34/0/0, density: 384.33715 [kg/m^3]
	absolute adsorption:   1.21429 [mol/uc],        25.2750 [mol/kg],           1009.7365 [mg/g]
	                                               566.5134 [cm^3 STP/g],        215.6324 [cm^3 STP/cm^3]
	excess adsorption:     1.21427 [mol/uc],        25.2747 [mol/kg],           1009.7244 [mg/g]
	                                               566.5066 [cm^3 STP/g],        215.6298 [cm^3 STP/cm^3]
----------------------------------------------------------------------------------------------------------------------------------------------------
Degrees of freedom: 102 0 102 0
Number of Framework-atoms:    112
Number of Adsorbates:          34 (34 integer, 0 fractional, 0 reaction)
Number of Cations:              0 (0 integer, 0 fractional, 0 reaction

Current total potential energy:            -53611.1104394313 [K]
	Current Host-Host energy:                     0.0000000000 [K]
	Current Host-Adsorbate energy:           -39975.6924100032 [K]
	Current Host-Cation energy:                   0.0000000000 [K]
	Current Adsorbate-Adsorbate energy:       -7466.6106246291 [K]
	Current Cation-Cation energy:                 0.0000000000 [K]
	Current Adsorbate-Cation energy:              0.0000000000 [K]



[Init] Current cycle: 150 out of 300
========================================================================================================

Net charge: 0 (F: 0, A: 0, C: 0)
Current Box:  17.22000   0.00000   0.00000 [A]
               0.00000  17.04000   0.00000 [A]
               0.00000   0.00000  20.00000 [A]
Box-lengths:  17.22000  17.04000  20.00000 Box-angles:   90.00000  90.00000  90.00000 [degrees]
Volume: 5868.57600 [A^3]

Loadings per component:
----------------------------------------------------------------------------------------------------------------------------------------------------
Component 0 (Ar), current number of integer/fractional/reaction molecules: 35/0/0, density: 395.64118 [kg/m^3]
	absolute adsorption:   1.25000 [mol/uc],        26.0184 [mol/kg],           1039.4346 [mg/g]
	                                               583.1755 [cm^3 STP/g],        221.9746 [cm^3 STP/cm^3]
	excess adsorption:     1.24999 [mol/uc],        26.0181 [mol/kg],           1039.4225 [mg/g]
	                                               583.1687 [cm^3 STP/g],        221.9720 [cm^3 STP/cm^3]
----------------------------------------------------------------------------------------------------------------------------------------------------
Degrees of freedom: 105 0 105 0
Number of Framework-atoms:    112
Number of Adsorbates:          35 (35 integer, 0 fractional, 0 reaction)
Number of Cations:              0 (0 integer, 0 fractional, 0 reaction

Current total potential energy:            -55632.0206508259 [K]
	Current Host-Host energy:                     0.0000000000 [K]
	Current Host-Adsorbate energy:           -40870.7193874573 [K]
	Current Host-Cation energy:                   0.0000000000 [K]
	Current Adsorbate-Adsorbate energy:       -8479.2338705477 [K]
	Current Cation-Cation energy:                 0.0000000000 [K]
	Current Adsorbate-Cation energy:              0.0000000000 [K]



[Init] Current cycle: 180 out of 300
========================================================================================================

Net charge: 0 (F: 0, A: 0, C: 0)
Current Box:  17.22000   0.00000   0.00000 [A]
               0.00000  17.04000   0.00000 [A]
               0.00000   0.00000  20.00000 [A]
Box-lengths:  17.22000  17.04000  20.00000 Box-angles:   90.00000  90.00000  90.00000 [degrees]
Volume: 5868.57600 [A^3]

Loadings per component:
----------------------------------------------------------------------------------------------------------------------------------------------------
Component 0 (Ar), current number of integer/fractional/reaction molecules: 34/0/0, density: 384.33715 [kg/m^3]
	absolute adsorption:   1.21429 [mol/uc],        25.2750 [mol/kg],           1009.7365 [mg/g]
	                                               566.5134 [cm^3 STP/g],        215.6324 [cm^3 STP/cm^3]
	excess adsorption:     1.21427 [mol/uc],        25.2747 [mol/kg],           1009.7244 [mg/g]
	                                               566.5066 [cm^3 STP/g],        215.6298 [cm^3 STP/cm^3]
----------------------------------------------------------------------------------------------------------------------------------------------------
Degrees of freedom: 102 0 102 0
Number of Framework-atoms:    112
Number of Adsorbates:          34 (34 integer, 0 fractional, 0 reaction)
Number of Cations:              0 (0 integer, 0 fractional, 0 reaction

Current total potential energy:            -53588.2203764141 [K]
	Current Host-Host energy:                     0.0000000000 [K]
	Current Host-Adsorbate energy:           -39639.7287217940 [K]
	Current Host-Cation energy:                   0.0000000000 [K]
	Current Adsorbate-Adsorbate energy:       -7779.6842498209 [K]
	Current Cation-Cation energy:                 0.0000000000 [K]
	Current Adsorbate-Cation energy:              0.0000000000 [K]



[Init] Current cycle: 210 out of 300
========================================================================================================

Net charge: 0 (F: 0, A: 0, C: 0)
Current Box:  17.22000   0.00000   0.00000 [A]
               0.00000  17.04000   0.00000 [A]
               0.00000   0.00000  20.00000 [A]
Box-lengths:  17.22000  17.04000  20.00000 Box-angles:   90.00000  90.00000  90.00000 [degrees]
Volume: 5868.57600 [A^3]

Loadings per component:
----------------------------------------------------------------------------------------------------------------------------------------------------
Component 0 (Ar), current number of integer/fractional/reaction molecules: 34/0/0, density: 384.33715 [kg/m^3]
	absolute adsorption:   1.21429 [mol/uc],        25.2750 [mol/kg],           1009.7365 [mg/g]
	                                               566.5134 [cm^3 STP/g],        215.6324 [cm^3 STP/cm^3]
	excess adsorption:     1.21427 [mol/uc],        25.2747 [mol/kg],           1009.7244 [mg/g]
	                                               566.5066 [cm^3 STP/g],        215.6298 [cm^3 STP/cm^3]
----------------------------------------------------------------------------------------------------------------------------------------------------
Degrees of freedom: 102 0 102 0
Number of Framework-atoms:    112
Number of Adsorbates:          34 (34 integer, 0 fractional, 0 reaction)
Number of Cations:              0 (0 integer, 0 fractional, 0 reaction

Current total potential energy:            -54025.7449652548 [K]
	Current Host-Host energy:                     0.0000000000 [K]
	Current Host-Adsorbate energy:           -40007.0838321110 [K]
	Current Host-Cation energy:                   0.0000000000 [K]
	Current Adsorbate-Adsorbate energy:       -7849.8537283447 [K]
	Current Cation-Cation energy:                 0.0000000000 [K]
	Current Adsorbate-Cation energy:              0.0000000000 [K]



[Init] Current cycle: 240 out of 300
========================================================================================================

Net charge: 0 (F: 0, A: 0, C: 0)
Current Box:  17.22000   0.00000   0.00000 [A]
               0.00000  17.04000   0.00000 [A]
               0.00000   0.00000  20.00000 [A]
Box-lengths:  17.22000  17.04000  20.00000 Box-angles:   90.00000  90.00000  90.00000 [degrees]
Volume: 5868.57600 [A^3]

Loadings per component:
----------------------------------------------------------------------------------------------------------------------------------------------------
Component 0 (Ar), current number of integer/fractional/reaction molecules: 32/0/0, density: 361.72908 [kg/m^3]
	absolute adsorption:   1.14286 [mol/uc],        23.7882 [mol/kg],            950.3402 [mg/g]
	                                               533.1891 [cm^3 STP/g],        202.9482 [cm^3 STP/cm^3]
	excess adsorption:     1.14284 [mol/uc],        23.7879 [mol/kg],            950.3281 [mg/g]
	                                               533.1822 [cm^3 STP/g],        202.9456 [cm^3 STP/cm^3]
----------------------------------------------------------------------------------------------------------------------------------------------------
Degrees of freedom: 96 0 96 0
Number of Framework-atoms:    112
Number of Adsorbates:          32 (32 integer, 0 fractional, 0 reaction)
Number of Cations:              0 (0 integer, 0 fractional, 0 reaction

Current total potential energy:            -49405.6817617984 [K]
	Current Host-Host energy:                     0.0000000000 [K]
	Current Host-Adsorbate energy:           -36977.2233766162 [K]
	Current Host-Cation energy:                   0.0000000000 [K]
	Current Adsorbate-Adsorbate energy:       -6483.0810626548 [K]
	Current Cation-Cation energy:                 0.0000000000 [K]
	Current Adsorbate-Cation energy:              0.0000000000 [K]



[Init] Current cycle: 270 out of 300
========================================================================================================

Net charge: 0 (F: 0, A: 0, C: 0)
Current Box:  17.22000   0.00000   0.00000 [A]
               0.00000  17.04000   0.00000 [A]
               0.00000   0.00000  20.00000 [A]
Box-lengths:  17.22000  17.04000  20.00000 Box-angles:   90.00000  90.00000  90.00000 [degrees]
Volume: 5868.57600 [A^3]

Loadings per component:
----------------------------------------------------------------------------------------------------------------------------------------------------
Component 0 (Ar), current number of integer/fractional/reaction molecules: 34/0/0, density: 384.33715 [kg/m^3]
	absolute adsorption:   1.21429 [mol/uc],        25.2750 [mol/kg],           1009.7365 [mg/g]
	                                               566.5134 [cm^3 STP/g],        215.6324 [cm^3 STP/cm^3]
	excess adsorption:     1.21427 [mol/uc],        25.2747 [mol/kg],           1009.7244 [mg/g]
	                                               566.5066 [cm^3 STP/g],        215.6298 [cm^3 STP/cm^3]
----------------------------------------------------------------------------------------------------------------------------------------------------
Degrees of freedom: 102 0 102 0
Number of Framework-atoms:    112
Number of Adsorbates:          34 (34 integer, 0 fractional, 0 reaction)
Number of Cations:              0 (0 integer, 0 fractional, 0 reaction

Current total potential energy:            -53821.7349632696 [K]
	Current Host-Host energy:                     0.0000000000 [K]
	Current Host-Adsorbate energy:           -40136.7111195356 [K]
	Current Host-Cation energy:                   0.0000000000 [K]
	Current Adsorbate-Adsorbate energy:       -7516.2164389348 [K]
	Current Cation-Cation energy:                 0.0000000000 [K]
	Current Adsorbate-Cation energy:              0.0000000000 [K]



Average Properties at Current cycle: 0 out of 300
========================================================================================

Framework surface area:       0.0000000000 [m^2/g]        0.0000000000 [m^2/cm^3]       0.0000000000 [A^2]
	Framework 0 individual surface area:       0.0000000000 [m^2/g]        0.0000000000 [m^2/cm^3]       0.0000000000 [A^2]
	Cation surface area:                       0.0000000000 [m^2/g]        0.0000000000 [m^2/cm^3]       0.0000000000 [A^2]
Compressibility:       0.0000000000 [-]
Henry coefficients
	Component 0: 0 [mol/kg/Pa] (Rosenbluth factor new: 0 [-])
Energy <U_gh>_1-<U_h>_0 from Widom


Current cycle: 0 out of 300
========================================================================================================

Net charge: 0 (F: 0, A: 0, C: 0)
Current Box:  17.22000   0.00000   0.00000 [A]   Average Box:  17.22000   0.00000   0.00000 [A]
               0.00000  17.04000   0.00000 [A]                  0.00000  17.04000   0.00000 [A]
               0.00000   0.00000  20.00000 [A]                  0.00000   0.00000  20.00000 [A]
Box-lengths:   17.22000  17.04000  20.00000 [A] Average:  17.22000  17.04000  20.00000 [A]
Box-angles:   90.00000  90.00000  90.00000 [degrees] Average:  90.00000  90.00000  90.00000 [degrees]
Volume: 5868.57600 [A^3] Average Volume: 5868.57600 [A^3]

Loadings per component:
----------------------------------------------------------------------------------------------------------------------------------------------------
Component 0 (Ar), current number of integer/fractional/reaction molecules: 36/0/0 (avg.  36.00000), density: 406.94521 (avg. 406.94521) [kg/m^3]
	absolute adsorption:   1.28571 (avg.   1.28571) [mol/uc],  26.7617716509 (avg.  26.7617716509) [mol/kg], 1069.1327774538 (avg. 1069.1327774538) [mg/g]
	                     599.8377007461 (avg. 599.8377007461) [cm^3 STP/g],  228.3166974323 (avg. 228.3166974323) [cm^3 STP/cm^3]
	excess adsorption:     1.2856996612 (avg.   1.2500000000) [mol/uc],  26.7614672460 (avg.  26.0183891050) [mol/kg], 1069.1206164775 (avg. 1039.4346447467) [mg/g]
	                     599.8308778217 (avg. 583.1755423920) [cm^3 STP/g],  228.3141004172 (avg. 221.9745669480) [cm^3 STP/cm^3]
----------------------------------------------------------------------------------------------------------------------------------------------------
Degrees of freedom: 108 0 108 0
Number of Framework-atoms:    112
Number of Adsorbates:          36 (36 integer, 0 fractional, 0 reaction)
Number of Cations:              0 (0 integer, 0 fractional, 0 reaction)

Current total potential energy:            -56396.8929258296 [K]  (avg.      -56396.8929258296)
	Current Host-Host energy:                     0.0000000000 [K]  (avg.           0.0000000000)
	Current Host-Adsorbate energy:           -41899.2919683538 [K]  (avg.      -41899.2919683538)
	Current Host-Cation energy:                   0.0000000000 [K]  (avg.           0.0000000000)
	Current Adsorbate-Adsorbate energy:       -8101.2436120424 [K]  (avg.       -8101.2436120424)
	Current Cation-Cation energy:                 0.0000000000 [K]  (avg.           0.0000000000)
	Current Adsorbate-Cation energy:              0.0000000000 [K]  (avg.           0.0000000000)



Current cycle: 30 out of 300
========================================================================================================

Net charge: 0 (F: 0, A: 0, C: 0)
Current Box:  17.22000   0.00000   0.00000 [A]   Average Box:  17.22000   0.00000   0.00000 [A]
               0.00000  17.04000   0.00000 [A]                  0.00000  17.04000   0.00000 [A]
               0.00000   0.00000  20.00000 [A]                  0.00000   0.00000  20.00000 [A]
Box-lengths:   17.22000  17.04000  20.00000 [A] Average:  17.22000  17.04000  20.00000 [A]
Box-angles:   90.00000  90.00000  90.00000 [degrees] Average:  90.00000  90.00000  90.00000 [degrees]
Volume: 5868.57600 [A^3] Average Volume: 5868.57600 [A^3]

Loadings per component:
----------------------------------------------------------------------------------------------------------------------------------------------------
Component 0 (Ar), current number of integer/fractional/reaction molecules: 36/0/0 (avg.  36.00000), density: 406.94521 (avg. 406.94521) [kg/m^3]
	absolute adsorption:   1.28571 (avg.   1.28571) [mol/uc],  26.7617716509 (avg.  26.7617716509) [mol/kg], 1069.1327774538 (avg. 1069.1327774538) [mg/g]
	                     599.8377007461 (avg. 599.8377007461) [cm^3 STP/g],  228.3166974323 (avg. 228.3166974323) [cm^3 STP/cm^3]
	excess adsorption:     1.2856996612 (avg.   1.2500000000) [mol/uc],  26.7614672460 (avg.  26.0183891050) [mol/kg], 1069.1206164775 (avg. 1039.4346447467) [mg/g]
	                     599.8308778217 (avg. 583.1755423920) [cm^3 STP/g],  228.3141004172 (avg. 221.9745669480) [cm^3 STP/cm^3]
----------------------------------------------------------------------------------------------------------------------------------------------------
Degrees of freedom: 108 0 108 0
Number of Framework-atoms:    112
Number of Adsorbates:          36 (36 integer, 0 fractional, 0 reaction)
Number of Cations:              0 (0 integer, 0 fractional, 0 reaction)

Current total potential energy:            -57664.9007100730 [K]  (avg.      -57451.4302603480)
	Current Host-Host energy:                     0.0000000000 [K]  (avg.           0.0000000000)
	Current Host-Adsorbate energy:           -42556.3230225814 [K]  (avg.      -42438.2636786913)
	Current Host-Cation energy:                   0.0000000000 [K]  (avg.           0.0000000000)
	Current Adsorbate-Adsorbate energy:       -8712.2203420582 [K]  (avg.       -8616.8092362232)
	Current Cation-Cation energy:                 0.0000000000 [K]  (avg.           0.0000000000)
	Current Adsorbate-Cation energy:              0.0000000000 [K]  (avg.           0.0000000000)



Current cycle: 60 out of 300
========================================================================================================

Net charge: 0 (F: 0, A: 0, C: 0)
Current Box:  17.22000   0.00000   0.00000 [A]   Average Box:  17.22000   0.00000   0.00000 [A]
               0.00000  17.04000   0.00000 [A]                  0.00000  17.04000   0.00000 [A]
               0.00000   0.00000  20.00000 [A]                  0.00000   0.00000  20.00000 [A]
Box-lengths:   17.22000  17.04000  20.00000 [A] Average:  17.22000  17.04000  20.00000 [A]
Box-angles:   90.00000  90.00000  90.00000 [degrees] Average:  90.00000  90.00000  90.00000 [degrees]
Volume: 5868.57600 [A^3] Average Volume: 5868.57600 [A^3]

Loadings per component:
----------------------------------------------------------------------------------------------------------------------------------------------------
Component 0 (Ar), current number of integer/fractional/reaction molecules: 36/0/0 (avg.  36.11475), density: 406.94521 (avg. 408.24240) [kg/m^3]
	absolute adsorption:   1.28571 (avg.   1.28981) [mol/uc],  26.7617716509 (avg.  26.8470778447) [mol/kg], 1069.1327774538 (avg. 1072.5407598956) [mg/g]
	                     599.8377007461 (avg. 601.7497517047) [cm^3 STP/g],  228.3166974323 (avg. 229.0444828977) [cm^3 STP/cm^3]
	excess adsorption:     1.2856996612 (avg.   1.2540983607) [mol/uc],  26.7614672460 (avg.  26.1036952988) [mol/kg], 1069.1206164775 (avg. 1042.8426271885) [mg/g]
	                     599.8308778217 (avg. 585.0875933507) [cm^3 STP/g],  228.3141004172 (avg. 222.7023524134) [cm^3 STP/cm^3]
----------------------------------------------------------------------------------------------------------------------------------------------------
Degrees of freedom: 108 0 108 0
Number of Framework-atoms:    112
Number of Adsorbates:          36 (36 integer, 0 fractional, 0 reaction)
Number of Cations:              0 (0 integer, 0 fractional, 0 reaction)

Current total potential energy:            -57479.6014439420 [K]  (avg.      -57495.0165002393)
	Current Host-Host energy:                     0.0000000000 [K]  (avg.           0.0000000000)
	Current Host-Adsorbate energy:           -42268.9929920342 [K]  (avg.      -42390.7734522494)
	Current Host-Cation energy:                   0.0000000000 [K]  (avg.           0.0000000000)
	Current Adsorbate-Adsorbate energy:       -8814.2511064744 [K]  (avg.       -8694.6522694349)
	Current Cation-Cation energy:                 0.0000000000 [K]  (avg.           0.0000000000)
	Current Adsorbate-Cation energy:              0.0000000000 [K]  (avg.           0.0000000000)



Current cycle: 90 out of 300
========================================================================================================

Net charge: 0 (F: 0, A: 0, C: 0)
Current Box:  17.22000   0.00000   0.00000 [A]   Average Box:  17.22000   0.00000   0.00000 [A]
               0.00000  17.04000   0.00000 [A]                  0.00000  17.04000   0.00000 [A]
               0.00000   0.00000  20.00000 [A]                  0.00000   0.00000  20.00000 [A]
Box-lengths:   17.22000  17.04000  20.00000 [A] Average:  17.22000  17.04000  20.00000 [A]
Box-angles:   90.00000  90.00000  90.00000 [degrees] Average:  90.00000  90.00000  90.00000 [degrees]
Volume: 5868.57600 [A^3] Average Volume: 5868.57600 [A^3]

Loadings per component:
----------------------------------------------------------------------------------------------------------------------------------------------------
Component 0 (Ar), current number of integer/fractional/reaction molecules: 38/0/0 (avg.  36.40659), density: 429.55328 (avg. 411.54136) [kg/m^3]
	absolute adsorption:   1.35714 (avg.   1.30024) [mol/uc],  28.2485367426 (avg.  27.0640260926) [mol/kg], 1128.5290428679 (avg. 1081.2078424006) [mg/g]
	                     633.1620174542 (avg. 606.6124244724) [cm^3 STP/g],  241.0009584007 (avg. 230.8953658709) [cm^3 STP/cm^3]
	excess adsorption:     1.3571282326 (avg.   1.2645211931) [mol/uc],  28.2482323377 (avg.  26.3206435468) [mol/kg], 1128.5168818916 (avg. 1051.5097096935) [mg/g]
	                     633.1551945298 (avg. 589.9502661184) [cm^3 STP/g],  240.9983613856 (avg. 224.5532353867) [cm^3 STP/cm^3]
----------------------------------------------------------------------------------------------------------------------------------------------------
Degrees of freedom: 114 0 114 0
Number of Framework-atoms:    112
Number of Adsorbates:          38 (38 integer, 0 fractional, 0 reaction)
Number of Cations:              0 (0 integer, 0 fractional, 0 reaction)

Current total potential energy:            -58819.2915546570 [K]  (avg.      -57663.4740463597)
	Current Host-Host energy:                     0.0000000000 [K]  (avg.           0.0000000000)
	Current Host-Adsorbate energy:           -43128.8832878514 [K]  (avg.      -42396.0031097940)
	Current Host-Cation energy:                   0.0000000000 [K]  (avg.           0.0000000000)
	Current Adsorbate-Adsorbate energy:       -9062.3811223751 [K]  (avg.       -8824.1007719344)
	Current Cation-Cation energy:                 0.0000000000 [K]  (avg.           0.0000000000)
	Current Adsorbate-Cation energy:              0.0000000000 [K]  (avg.           0.0000000000)



Current cycle: 120 out of 300
========================================================================================================

Net charge: 0 (F: 0, A: 0, C: 0)
Current Box:  17.22000   0.00000   0.00000 [A]   Average Box:  17.22000   0.00000   0.00000 [A]
               0.00000  17.04000   0.00000 [A]                  0.00000  17.04000   0.00000 [A]
               0.00000   0.00000  20.00000 [A]                  0.00000   0.00000  20.00000 [A]
Box-lengths:   17.22000  17.04000  20.00000 [A] Average:  17.22000  17.04000  20.00000 [A]
Box-angles:   90.00000  90.00000  90.00000 [degrees] Average:  90.00000  90.00000  90.00000 [degrees]
Volume: 5868.57600 [A^3] Average Volume: 5868.57600 [A^3]

Loadings per component:
----------------------------------------------------------------------------------------------------------------------------------------------------
Component 0 (Ar), current number of integer/fractional/reaction molecules: 40/0/0 (avg.  37.33058), density: 452.16135 (avg. 421.98612) [kg/m^3]
	absolute adsorption:   1.42857 (avg.   1.33323) [mol/uc],  29.7353018343 (avg.  27.7509004929) [mol/kg], 1187.9253082820 (avg. 1108.6484746921) [mg/g]
	                     666.4863341623 (avg. 622.0080106221) [cm^3 STP/g],  253.6852193692 (avg. 236.7553999774) [cm^3 STP/cm^3]
	excess adsorption:     1.4285568041 (avg.   1.2975206612) [mol/uc],  29.7349974294 (avg.  27.0075179471) [mol/kg], 1187.9131473056 (avg. 1078.9503419850) [mg/g]
	                     666.4795112379 (avg. 605.3458522681) [cm^3 STP/g],  253.6826223541 (avg. 230.4132694932) [cm^3 STP/cm^3]
----------------------------------------------------------------------------------------------------------------------------------------------------
Degrees of freedom: 120 0 120 0
Number of Framework-atoms:    112
Number of Adsorbates:          40 (40 integer, 0 fractional, 0 reaction)
Number of Cations:              0 (0 integer, 0 fractional, 0 reaction)

Current total potential energy:            -63637.1444723844 [K]  (avg.      -59065.8222999924)
	Current Host-Host energy:                     0.0000000000 [K]  (avg.           0.0000000000)
	Current Host-Adsorbate energy:           -46400.3237229521 [K]  (avg.      -43227.2286693326)
	Current Host-Cation energy:                   0.0000000000 [K]  (avg.           0.0000000000)
	Current Adsorbate-Adsorbate energy:      -10373.0039476423 [K]  (avg.       -9286.9384426605)
	Current Cation-Cation energy:                 0.0000000000 [K]  (avg.           0.0000000000)
	Current Adsorbate-Cation energy:              0.0000000000 [K]  (avg.           0.0000000000)



Current cycle: 150 out of 300
========================================================================================================

Net charge: 0 (F: 0, A: 0, C: 0)
Current Box:  17.22000   0.00000   0.00000 [A]   Average Box:  17.22000   0.00000   0.00000 [A]
               0.00000  17.04000   0.00000 [A]                  0.00000  17.04000   0.00000 [A]
               0.00000   0.00000  20.00000 [A]                  0.00000   0.00000  20.00000 [A]
Box-lengths:   17.22000  17.04000  20.00000 [A] Average:  17.22000  17.04000  20.00000 [A]
Box-angles:   90.00000  90.00000  90.00000 [degrees] Average:  90.00000  90.00000  90.00000 [degrees]
Volume: 5868.57600 [A^3] Average Volume: 5868.57600 [A^3]

Loadings per component:
----------------------------------------------------------------------------------------------------------------------------------------------------
Component 0 (Ar), current number of integer/fractional/reaction molecules: 40/0/0 (avg.  37.86093), density: 452.16135 (avg. 427.98120) [kg/m^3]
	absolute adsorption:   1.42857 (avg.   1.35218) [mol/uc],  29.7353018343 (avg.  28.1451524151) [mol/kg], 1187.9253082820 (avg. 1124.3988389815) [mg/g]
	                     666.4863341623 (avg. 630.8447636433) [cm^3 STP/g],  253.6852193692 (avg. 240.1189402539) [cm^3 STP/cm^3]
	excess adsorption:     1.4285568041 (avg.   1.3164616840) [mol/uc],  29.7349974294 (avg.  27.4017698692) [mol/kg], 1187.9131473056 (avg. 1094.7007062744) [mg/g]
	                     666.4795112379 (avg. 614.1826052893) [cm^3 STP/g],  253.6826223541 (avg. 233.7768097697) [cm^3 STP/cm^3]
----------------------------------------------------------------------------------------------------------------------------------------------------
Degrees of freedom: 120 0 120 0
Number of Framework-atoms:    112
Number of Adsorbates:          40 (40 integer, 0 fractional, 0 reaction)
Number of Cations:              0 (0 integer, 0 fractional, 0 reaction)

Current total potential energy:            -63708.7507127467 [K]  (avg.      -60118.6776942041)
	Current Host-Host energy:                     0.0000000000 [K]  (avg.           0.0000000000)
	Current Host-Adsorbate energy:           -47053.2639898987 [K]  (avg.      -43947.2657510594)
	Current Host-Cation energy:                   0.0000000000 [K]  (avg.           0.0000000000)
	Current Adsorbate-Adsorbate energy:       -9791.6699210581 [K]  (avg.       -9557.7378914784)
	Current Cation-Cation energy:                 0.0000000000 [K]  (avg.           0.0000000000)
	Current Adsorbate-Cation energy:              0.0000000000 [K]  (avg.           0.0000000000)



Current cycle: 180 out of 300
========================================================================================================

Net charge: 0 (F: 0, A: 0, C: 0)
Current Box:  17.22000   0.00000   0.00000 [A]   Average Box:  17.22000   0.00000   0.00000 [A]
               0.00000  17.04000   0.00000 [A]                  0.00000  17.04000   0.00000 [A]
               0.00000   0.00000  20.00000 [A]                  0.00000   0.00000  20.00000 [A]
Box-lengths:   17.22000  17.04000  20.00000 [A] Average:  17.22000  17.04000  20.00000 [A]
Box-angles:   90.00000  90.00000  90.00000 [degrees] Average:  90.00000  90.00000  90.00000 [degrees]
Volume: 5868.57600 [A^3] Average Volume: 5868.57600 [A^3]

Loadings per component:
----------------------------------------------------------------------------------------------------------------------------------------------------
Component 0 (Ar), current number of integer/fractional/reaction molecules: 39/0/0 (avg.  38.09945), density: 440.85732 (avg. 430.67744) [kg/m^3]
	absolute adsorption:   1.39286 (avg.   1.36069) [mol/uc],  28.9919192885 (avg.  28.3224642886) [mol/kg], 1158.2271755749 (avg. 1131.4824483304) [mg/g]
	                     649.8241758082 (avg. 634.8190276772) [cm^3 STP/g],  247.3430888850 (avg. 241.6316675097) [cm^3 STP/cm^3]
	excess adsorption:     1.3928425183 (avg.   1.3249802684) [mol/uc],  28.9916148836 (avg.  27.5790817428) [mol/kg], 1158.2150145986 (avg. 1101.7843156234) [mg/g]
	                     649.8173528839 (avg. 618.1568693232) [cm^3 STP/g],  247.3404918699 (avg. 235.2895370254) [cm^3 STP/cm^3]
----------------------------------------------------------------------------------------------------------------------------------------------------
Degrees of freedom: 117 0 117 0
Number of Framework-atoms:    112
Number of Adsorbates:          39 (39 integer, 0 fractional, 0 reaction)
Number of Cations:              0 (0 integer, 0 fractional, 0 reaction)

Current total potential energy:            -62910.7619174103 [K]  (avg.      -60527.3666676069)
	Current Host-Host energy:                     0.0000000000 [K]  (avg.           0.0000000000)
	Current Host-Adsorbate energy:           -45944.3671959190 [K]  (avg.      -44250.0878382972)
	Current Host-Cation energy:                   0.0000000000 [K]  (avg.           0.0000000000)
	Current Adsorbate-Adsorbate energy:      -10220.9877306763 [K]  (avg.       -9635.8828081780)
	Current Cation-Cation energy:                 0.0000000000 [K]  (avg.           0.0000000000)
	Current Adsorbate-Cation energy:              0.0000000000 [K]  (avg.           0.0000000000)



Current cycle: 210 out of 300
========================================================================================================

Net charge: 0 (F: 0, A: 0, C: 0)
Current Box:  17.22000   0.00000   0.00000 [A]   Average Box:  17.22000   0.00000   0.00000 [A]
               0.00000  17.04000   0.00000 [A]                  0.00000  17.04000   0.00000 [A]
               0.00000   0.00000  20.00000 [A]                  0.00000   0.00000  20.00000 [A]
Box-lengths:   17.22000  17.04000  20.00000 [A] Average:  17.22000  17.04000  20.00000 [A]
Box-angles:   90.00000  90.00000  90.00000 [degrees] Average:  90.00000  90.00000  90.00000 [degrees]
Volume: 5868.57600 [A^3] Average Volume: 5868.57600 [A^3]

Loadings per component:
----------------------------------------------------------------------------------------------------------------------------------------------------
Component 0 (Ar), current number of integer/fractional/reaction molecules: 39/0/0 (avg.  38.22749), density: 440.85732 (avg. 432.12482) [kg/m^3]
	absolute adsorption:   1.39286 (avg.   1.36527) [mol/uc],  28.9919192885 (avg.  28.4176474640) [mol/kg], 1158.2271755749 (avg. 1135.2850161851) [mg/g]
	                     649.8241758082 (avg. 636.9524610608) [cm^3 STP/g],  247.3430888850 (avg. 242.4437179422) [cm^3 STP/cm^3]
	excess adsorption:     1.3928425183 (avg.   1.3295531483) [mol/uc],  28.9916148836 (avg.  27.6742649181) [mol/kg], 1158.2150145986 (avg. 1105.5868834781) [mg/g]
	                     649.8173528839 (avg. 620.2903027067) [cm^3 STP/g],  247.3404918699 (avg. 236.1015874579) [cm^3 STP/cm^3]
----------------------------------------------------------------------------------------------------------------------------------------------------
Degrees of freedom: 117 0 117 0
Number of Framework-atoms:    112
Number of Adsorbates:          39 (39 integer, 0 fractional, 0 reaction)
Number of Cations:              0 (0 integer, 0 fractional, 0 reaction)

Current total potential energy:            -62624.9418971244 [K]  (avg.      -60839.9743426804)
	Current Host-Host energy:                     0.0000000000 [K]  (avg.           0.0000000000)
	Current Host-Adsorbate energy:           -45624.2414848575 [K]  (avg.      -44447.6990340466)
	Current Host-Cation energy:                   0.0000000000 [K]  (avg.           0.0000000000)
	Current Adsorbate-Adsorbate energy:      -10255.2934214521 [K]  (avg.       -9736.0909979737)
	Current Cation-Cation energy:                 0.0000000000 [K]  (avg.           0.0000000000)
	Current Adsorbate-Cation energy:              0.0000000000 [K]  (avg.           0.0000000000)



Current cycle: 240 out of 300
========================================================================================================

Net charge: 0 (F: 0, A: 0, C: 0)
Current Box:  17.22000   0.00000   0.00000 [A]   Average Box:  17.22000   0.00000   0.00000 [A]
               0.00000  17.04000   0.00000 [A]                  0.00000  17.04000   0.00000 [A]
               0.00000   0.00000  20.00000 [A]                  0.00000   0.00000  20.00000 [A]
Box-lengths:   17.22000  17.04000  20.00000 [A] Average:  17.22000  17.04000  20.00000 [A]
Box-angles:   90.00000  90.00000  90.00000 [degrees] Average:  90.00000  90.00000  90.00000 [degrees]
Volume: 5868.57600 [A^3] Average Volume: 5868.57600 [A^3]

Loadings per component:
----------------------------------------------------------------------------------------------------------------------------------------------------
Component 0 (Ar), current number of integer/fractional/reaction molecules: 39/0/0 (avg.  38.32780), density: 440.85732 (avg. 433.25875) [kg/m^3]
	absolute adsorption:   1.39286 (avg.   1.36885) [mol/uc],  28.9919192885 (avg.  28.4922181581) [mol/kg], 1158.2271755749 (avg. 1138.2641154150) [mg/g]
	                     649.8241758082 (avg. 638.6238867902) [cm^3 STP/g],  247.3430888850 (avg. 243.0799140366) [cm^3 STP/cm^3]
	excess adsorption:     1.3928425183 (avg.   1.3331357439) [mol/uc],  28.9916148836 (avg.  27.7488356122) [mol/kg], 1158.2150145986 (avg. 1108.5659827079) [mg/g]
	                     649.8173528839 (avg. 621.9617284361) [cm^3 STP/g],  247.3404918699 (avg. 236.7377835524) [cm^3 STP/cm^3]
----------------------------------------------------------------------------------------------------------------------------------------------------
Degrees of freedom: 117 0 117 0
Number of Framework-atoms:    112
Number of Adsorbates:          39 (39 integer, 0 fractional, 0 reaction)
Number of Cations:              0 (0 integer, 0 fractional, 0 reaction)

Current total potential energy:            -61245.0576824077 [K]  (avg.      -61047.8846056578)
	Current Host-Host energy:                     0.0000000000 [K]  (avg.           0.0000000000)
	Current Host-Adsorbate energy:           -44400.8976062702 [K]  (avg.      -44567.4733005555)
	Current Host-Cation energy:                   0.0000000000 [K]  (avg.           0.0000000000)
	Current Adsorbate-Adsorbate energy:      -10098.7530853227 [K]  (avg.       -9812.6291097301)
	Current Cation-Cation energy:                 0.0000000000 [K]  (avg.           0.0000000000)
	Current Adsorbate-Cation energy:              0.0000000000 [K]  (avg.           0.0000000000)



Current cycle: 270 out of 300
========================================================================================================

Net charge: 0 (F: 0, A: 0, C: 0)
Current Box:  17.22000   0.00000   0.00000 [A]   Average Box:  17.22000   0.00000   0.00000 [A]
               0.00000  17.04000   0.00000 [A]                  0.00000  17.04000   0.00000 [A]
               0.00000   0.00000  20.00000 [A]                  0.00000   0.00000  20.00000 [A]
Box-lengths:   17.22000  17.04000  20.00000 [A] Average:  17.22000  17.04000  20.00000 [A]
Box-angles:   90.00000  90.00000  90.00000 [degrees] Average:  90.00000  90.00000  90.00000 [degrees]
Volume: 5868.57600 [A^3] Average Volume: 5868.57600 [A^3]

Loadings per component:
----------------------------------------------------------------------------------------------------------------------------------------------------
Component 0 (Ar), current number of integer/fractional/reaction molecules: 39/0/0 (avg.  38.45018), density: 440.85732 (avg. 434.64218) [kg/m^3]
	absolute adsorption:   1.39286 (avg.   1.37322) [mol/uc],  28.9919192885 (avg.  28.5831960437) [mol/kg], 1158.2271755749 (avg. 1141.8986819463) [mg/g]
	                     649.8241758082 (avg. 640.6630629125) [cm^3 STP/g],  247.3430888850 (avg. 243.8560872534) [cm^3 STP/cm^3]
	excess adsorption:     1.3928425183 (avg.   1.3375065894) [mol/uc],  28.9916148836 (avg.  27.8398134979) [mol/kg], 1158.2150145986 (avg. 1112.2005492393) [mg/g]
	                     649.8173528839 (avg. 624.0009045584) [cm^3 STP/g],  247.3404918699 (avg. 237.5139567692) [cm^3 STP/cm^3]
----------------------------------------------------------------------------------------------------------------------------------------------------
Degrees of freedom: 117 0 117 0
Number of Framework-atoms:    112
Number of Adsorbates:          39 (39 integer, 0 fractional, 0 reaction)
Number of Cations:              0 (0 integer, 0 fractional, 0 reaction)

Current total potential energy:            -61241.6195477772 [K]  (avg.      -61179.1764380258)
	Current Host-Host energy:                     0.0000000000 [K]  (avg.           0.0000000000)
	Current Host-Adsorbate energy:           -45160.5055478592 [K]  (avg.      -44625.0346050412)
	Current Host-Cation energy:                   0.0000000000 [K]  (avg.           0.0000000000)
	Current Adsorbate-Adsorbate energy:       -9335.7070091033 [K]  (avg.       -9872.0863113912)
	Current Cation-Cation energy:                 0.0000000000 [K]  (avg.           0.0000000000)
	Current Adsorbate-Cation energy:              0.0000000000 [K]  (avg.           0.0000000000)



+++++++++++++++++++++++++++++++++++++++++++++++++++++++++++++++++++++++++
Finishing simulation
+++++++++++++++++++++++++++++++++++++++++++++++++++++++++++++++++++++++++




Current (running energy) Energy Status
===========================================================================

Internal energy:
Host stretch energy:                                            0.00000000
Host UreyBradley energy:                                        0.00000000
Host bend energy:                                               0.00000000
Host inversion-bend energy:                                     0.00000000
Host torsion energy:                                            0.00000000
Host improper torsion energy:                                   0.00000000
Host out-of-plane energy:                                       0.00000000
Host stretch/stretch energy:                                    0.00000000
Host bend/bend energy:                                          0.00000000
Host stretch/bend energy:                                       0.00000000
Host stretch/torsion energy:                                    0.00000000
Host bend/torsion energy:                                       0.00000000

Adsorbate stretch energy:                                       0.00000000
Adsorbate UreyBradley energy:                                   0.00000000
Adsorbate bend energy:                                          0.00000000
Adsorbate inversion-bend energy:                                0.00000000
Adsorbate torsion energy:                                       0.00000000
Adsorbate improper torsion energy:                              0.00000000
Adsorbate out-of-plane energy:                                  0.00000000
Adsorbate stretch/stretch energy:                               0.00000000
Adsorbate bend/bend energy:                                     0.00000000
Adsorbate stretch/bend energy:                                  0.00000000
Adsorbate stretch/torsion energy:                               0.00000000
Adsorbate bend/torsion energy:                                  0.00000000
[...]
	Block[ 1]            0.00000 [K]
	Block[ 2]            0.00000 [K]
	Block[ 3]            0.00000 [K]
	Block[ 4]            0.00000 [K]
	------------------------------------------------------------------------------
	Average              0.00000 [K] +/-            0.00000 [K]

Average Cation Bend angle inversion energy:
===========================================
	Block[ 0]            0.00000 [K]
	Block[ 1]            0.00000 [K]
	Block[ 2]            0.00000 [K]
	Block[ 3]            0.00000 [K]
	Block[ 4]            0.00000 [K]
	------------------------------------------------------------------------------
	Average              0.00000 [K] +/-            0.00000 [K]

Average Cation Torsion energy:
==============================
	Block[ 0]            0.00000 [K]
	Block[ 1]            0.00000 [K]
	Block[ 2]            0.00000 [K]
	Block[ 3]            0.00000 [K]
	Block[ 4]            0.00000 [K]
	------------------------------------------------------------------------------
	Average              0.00000 [K] +/-            0.00000 [K]

Average Cation Improper Torsion energy:
=======================================
	Block[ 0]            0.00000 [K]
	Block[ 1]            0.00000 [K]
	Block[ 2]            0.00000 [K]
	Block[ 3]            0.00000 [K]
	Block[ 4]            0.00000 [K]
	------------------------------------------------------------------------------
	Average              0.00000 [K] +/-            0.00000 [K]

Average Cation Bond-Bond cross term energy:
=================================================
	Block[ 0]            0.00000 [K]
	Block[ 1]            0.00000 [K]
	Block[ 2]            0.00000 [K]
	Block[ 3]            0.00000 [K]
	Block[ 4]            0.00000 [K]
	------------------------------------------------------------------------------
	Average              0.00000 [K] +/-            0.00000 [K]

Average Cation Bend-Bend cross term energy:
===========================================
	Block[ 0]            0.00000 [K]
	Block[ 1]            0.00000 [K]
	Block[ 2]            0.00000 [K]
	Block[ 3]            0.00000 [K]
	Block[ 4]            0.00000 [K]
	------------------------------------------------------------------------------
	Average              0.00000 [K] +/-            0.00000 [K]

Average Cation Bond-Bend cross term energy:
==============================================
	Block[ 0]            0.00000 [K]
	Block[ 1]            0.00000 [K]
	Block[ 2]            0.00000 [K]
	Block[ 3]            0.00000 [K]
	Block[ 4]            0.00000 [K]
	------------------------------------------------------------------------------
	Average              0.00000 [K] +/-            0.00000 [K]

Average Cation Bond-Torsion cross term energy:
==============================================
	Block[ 0]            0.00000 [K]
	Block[ 1]            0.00000 [K]
	Block[ 2]            0.00000 [K]
	Block[ 3]            0.00000 [K]
	Block[ 4]            0.00000 [K]
	------------------------------------------------------------------------------
	Average              0.00000 [K] +/-            0.00000 [K]

Average Cation Bend-Torsion cross term energy:
==============================================
	Block[ 0]            0.00000 [K]
	Block[ 1]            0.00000 [K]
	Block[ 2]            0.00000 [K]
	Block[ 3]            0.00000 [K]
	Block[ 4]            0.00000 [K]
	------------------------------------------------------------------------------
	Average              0.00000 [K] +/-            0.00000 [K]

Average Cation Intra Van der Waals energy:
==========================================
	Block[ 0]            0.00000 [K]
	Block[ 1]            0.00000 [K]
	Block[ 2]            0.00000 [K]
	Block[ 3]            0.00000 [K]
	Block[ 4]            0.00000 [K]
	------------------------------------------------------------------------------
	Average              0.00000 [K] +/-            0.00000 [K]

Average Cation Intra charge-charge Coulomb energy:
====================================
	Block[ 0]            0.00000 [K]
	Block[ 1]            0.00000 [K]
	Block[ 2]            0.00000 [K]
	Block[ 3]            0.00000 [K]
	Block[ 4]            0.00000 [K]
	------------------------------------------------------------------------------
	Average              0.00000 [K] +/-            0.00000 [K]

Average Cation Intra charge-bonddipole Coulomb energy:
====================================
	Block[ 0]            0.00000 [K]
	Block[ 1]            0.00000 [K]
	Block[ 2]            0.00000 [K]
	Block[ 3]            0.00000 [K]
	Block[ 4]            0.00000 [K]
	------------------------------------------------------------------------------
	Average              0.00000 [K] +/-            0.00000 [K]

Average Cation Intra bonddipole-bonddipole Coulomb energy:
====================================
	Block[ 0]            0.00000 [K]
	Block[ 1]            0.00000 [K]
	Block[ 2]            0.00000 [K]
	Block[ 3]            0.00000 [K]
	Block[ 4]            0.00000 [K]
	------------------------------------------------------------------------------
	Average              0.00000 [K] +/-            0.00000 [K]

Average Host-Host energy:
=========================
	Block[ 0] 0.00000            Van der Waals: 0.00000            Coulomb: 0.00000            [K]
	Block[ 1] 0.00000            Van der Waals: 0.00000            Coulomb: 0.00000            [K]
	Block[ 2] 0.00000            Van der Waals: 0.00000            Coulomb: 0.00000            [K]
	Block[ 3] 0.00000            Van der Waals: 0.00000            Coulomb: 0.00000            [K]
	Block[ 4] 0.00000            Van der Waals: 0.00000            Coulomb: 0.00000            [K]
	------------------------------------------------------------------------------
	Average   0.00000            Van der Waals: 0.000000           Coulomb: 0.00000            [K]
	      +/- 0.00000                       +/- 0.000000                +/- 0.00000            [K]

Average Adsorbate-Adsorbate energy:
===================================
	Block[ 0] -8692.65896        Van der Waals: -8692.65896        Coulomb: 0.00000            [K]
	Block[ 1] -9863.11684        Van der Waals: -9863.11684        Coulomb: 0.00000            [K]
	Block[ 2] -10342.12088       Van der Waals: -10342.12088       Coulomb: 0.00000            [K]
	Block[ 3] -10347.85103       Van der Waals: -10347.85103       Coulomb: 0.00000            [K]
	Block[ 4] -10194.54666       Van der Waals: -10194.54666       Coulomb: 0.00000            [K]
	------------------------------------------------------------------------------
	Average   -9888.05887        Van der Waals: -9888.058873       Coulomb: 0.00000            [K]
	      +/- 1246.15215                    +/- 1246.152147             +/- 0.00000            [K]

Average Cation-Cation energy:
=============================
	Block[ 0] 0.00000            Van der Waals: 0.00000            Coulomb: 0.00000            [K]
	Block[ 1] 0.00000            Van der Waals: 0.00000            Coulomb: 0.00000            [K]
	Block[ 2] 0.00000            Van der Waals: 0.00000            Coulomb: 0.00000            [K]
	Block[ 3] 0.00000            Van der Waals: 0.00000            Coulomb: 0.00000            [K]
	Block[ 4] 0.00000            Van der Waals: 0.00000            Coulomb: 0.00000            [K]
	------------------------------------------------------------------------------
	Average   0.00000            Van der Waals: 0.000000           Coulomb: 0.00000            [K]
	      +/- 0.00000                       +/- 0.000000                +/- 0.00000            [K]

Average Host-Adsorbate energy:
==============================
	Block[ 0] -42392.80313       Van der Waals: -42392.80313       Coulomb: 0.00000            [K]
	Block[ 1] -44008.76929       Van der Waals: -44008.76929       Coulomb: 0.00000            [K]
	Block[ 2] -46320.45310       Van der Waals: -46320.45310       Coulomb: 0.00000            [K]
	Block[ 3] -45550.64394       Van der Waals: -45550.64394       Coulomb: 0.00000            [K]
	Block[ 4] -45299.75481       Van der Waals: -45299.75481       Coulomb: 0.00000            [K]
	------------------------------------------------------------------------------
	Average   -44714.48485       Van der Waals: -44714.484854      Coulomb: 0.00000            [K]
	      +/- 2758.12653                    +/- 2758.126531             +/- 0.00000            [K]

Average Host-Cation energy:
===========================
	Block[ 0] 0.00000            Van der Waals: 0.00000            Coulomb: 0.00000            [K]
	Block[ 1] 0.00000            Van der Waals: 0.00000            Coulomb: 0.00000            [K]
	Block[ 2] 0.00000            Van der Waals: 0.00000            Coulomb: 0.00000            [K]
	Block[ 3] 0.00000            Van der Waals: 0.00000            Coulomb: 0.00000            [K]
	Block[ 4] 0.00000            Van der Waals: 0.00000            Coulomb: 0.00000            [K]
	------------------------------------------------------------------------------
	Average   0.00000            Van der Waals: 0.000000           Coulomb: 0.00000            [K]
	      +/- 0.00000                       +/- 0.000000                +/- 0.00000            [K]

Average Adsorbate-Cation energy:
================================
	Block[ 0] 0.00000            Van der Waals: 0.00000            Coulomb: 0.00000            [K]
	Block[ 1] 0.00000            Van der Waals: 0.00000            Coulomb: 0.00000            [K]
	Block[ 2] 0.00000            Van der Waals: 0.00000            Coulomb: 0.00000            [K]
	Block[ 3] 0.00000            Van der Waals: 0.00000            Coulomb: 0.00000            [K]
	Block[ 4] 0.00000            Van der Waals: 0.00000            Coulomb: 0.00000            [K]
	------------------------------------------------------------------------------
	Average   0.00000            Van der Waals: 0.000000           Coulomb: 0.00000            [K]
	      +/- 0.00000                       +/- 0.000000                +/- 0.00000            [K]

Host polarization energy:
=======================
	Block[ 0]            0.00000 [K]
	Block[ 1]            0.00000 [K]
	Block[ 2]            0.00000 [K]
	Block[ 3]            0.00000 [K]
	Block[ 4]            0.00000 [K]
	------------------------------------------------------------------------------
	Average              0.00000 [K] +/-            0.00000 [K]

Adsorbate polarization energy:
=======================
	Block[ 0]            0.00000 [K]
	Block[ 1]            0.00000 [K]
	Block[ 2]            0.00000 [K]
	Block[ 3]            0.00000 [K]
	Block[ 4]            0.00000 [K]
	------------------------------------------------------------------------------
	Average              0.00000 [K] +/-            0.00000 [K]

Cation polarization energy:
=======================
	Block[ 0]            0.00000 [K]
	Block[ 1]            0.00000 [K]
	Block[ 2]            0.00000 [K]
	Block[ 3]            0.00000 [K]
	Block[ 4]            0.00000 [K]
	------------------------------------------------------------------------------
	Average              0.00000 [K] +/-            0.00000 [K]

Host back-polarization energy:
=======================
	Block[ 0]            0.00000 [K]
	Block[ 1]            0.00000 [K]
	Block[ 2]            0.00000 [K]
	Block[ 3]            0.00000 [K]
	Block[ 4]            0.00000 [K]
	------------------------------------------------------------------------------
	Average              0.00000 [K] +/-            0.00000 [K]

Adsorbate back-polarization energy:
=======================
	Block[ 0]            0.00000 [K]
	Block[ 1]            0.00000 [K]
	Block[ 2]            0.00000 [K]
	Block[ 3]            0.00000 [K]
	Block[ 4]            0.00000 [K]
	------------------------------------------------------------------------------
	Average              0.00000 [K] +/-            0.00000 [K]

Cation back-polarization energy:
=======================
	Block[ 0]            0.00000 [K]
	Block[ 1]            0.00000 [K]
	Block[ 2]            0.00000 [K]
	Block[ 3]            0.00000 [K]
	Block[ 4]            0.00000 [K]
	------------------------------------------------------------------------------
	Average              0.00000 [K] +/-            0.00000 [K]

Tail-correction energy:
=======================
	Block[ 0]        -6409.81134 [K]
	Block[ 1]        -6688.29635 [K]
	Block[ 2]        -6824.34686 [K]
	Block[ 3]        -6747.38049 [K]
	Block[ 4]        -6794.74441 [K]
	------------------------------------------------------------------------------
	Average          -6692.91589 [K] +/-          297.69658 [K]

Distance-constraints energy:
=======================
	Block[ 0]            0.00000 [K]
	Block[ 1]            0.00000 [K]
	Block[ 2]            0.00000 [K]
	Block[ 3]            0.00000 [K]
	Block[ 4]            0.00000 [K]
	------------------------------------------------------------------------------
	Average              0.00000 [K] +/-            0.00000 [K]

Angle-constraints energy:
=======================
	Block[ 0]            0.00000 [K]
	Block[ 1]            0.00000 [K]
	Block[ 2]            0.00000 [K]
	Block[ 3]            0.00000 [K]
	Block[ 4]            0.00000 [K]
	------------------------------------------------------------------------------
	Average              0.00000 [K] +/-            0.00000 [K]

Dihedral-constraints energy:
=======================
	Block[ 0]            0.00000 [K]
	Block[ 1]            0.00000 [K]
	Block[ 2]            0.00000 [K]
	Block[ 3]            0.00000 [K]
	Block[ 4]            0.00000 [K]
	------------------------------------------------------------------------------
	Average              0.00000 [K] +/-            0.00000 [K]

Inversion-bend constraints energy:
=======================
	Block[ 0]            0.00000 [K]
	Block[ 1]            0.00000 [K]
	Block[ 2]            0.00000 [K]
	Block[ 3]            0.00000 [K]
	Block[ 4]            0.00000 [K]
	------------------------------------------------------------------------------
	Average              0.00000 [K] +/-            0.00000 [K]

Out-of-plane-distance constraints energy:
=======================
	Block[ 0]            0.00000 [K]
	Block[ 1]            0.00000 [K]
	Block[ 2]            0.00000 [K]
	Block[ 3]            0.00000 [K]
	Block[ 4]            0.00000 [K]
	------------------------------------------------------------------------------
	Average              0.00000 [K] +/-            0.00000 [K]

Exclusion-constraints energy:
=======================
	Block[ 0]            0.00000 [K]
	Block[ 1]            0.00000 [K]
	Block[ 2]            0.00000 [K]
	Block[ 3]            0.00000 [K]
	Block[ 4]            0.00000 [K]
	------------------------------------------------------------------------------
	Average              0.00000 [K] +/-            0.00000 [K]

Total energy:
=============
	Block[ 0]       -57495.27342 [K]
	Block[ 1]       -60560.18248 [K]
	Block[ 2]       -63486.92085 [K]
	Block[ 3]       -62645.87546 [K]
	Block[ 4]       -62289.04588 [K]
	------------------------------------------------------------------------------
	Average         -61295.45962 [K] +/-         4251.62431 [K]

Number of molecules:
====================

Component 0 [Ar]
-------------------------------------------------------------
	Block[ 0] 36.11667           [-]
	Block[ 1] 38.50000           [-]
	Block[ 2] 39.66667           [-]
	Block[ 3] 39.01667           [-]
	Block[ 4] 39.41667           [-]
	------------------------------------------------------------------------------
	Average                                     38.5433333333 +/-       2.5517401470 [-]
	Average loading absolute [molecules/unit cell]        1.3765476190 +/-       0.0911335767 [-]
	Average loading absolute [mol/kg framework]         28.6524412592 +/-       1.8969190868 [-]
	Average loading absolute [milligram/gram framework]       1144.6650283054 +/-      75.7819175193 [-]
	Average loading absolute [cm^3 (STP)/gr framework]        642.2151234932 +/-      42.5174984076 [-]
	Average loading absolute [cm^3 (STP)/cm^3 framework]        244.4468492972 +/-      16.1834689741 [-]

	Block[ 0] 36.11667           [-]
	Block[ 1] 38.50000           [-]
	Block[ 2] 39.66667           [-]
	Block[ 3] 39.01667           [-]
	Block[ 4] 39.41667           [-]
	------------------------------------------------------------------------------
	Average                                     37.5433333333 +/-       2.5517401470 [-]
	Average loading excess [molecules/unit cell]        1.3408333333 +/-       0.0911335767 [-]
	Average loading excess [mol/kg framework]         27.9090587133 +/-       1.8969190868 [-]
	Average loading excess [milligram/gram framework]       1114.9668955983 +/-      75.7819175193 [-]
	Average loading excess [cm^3 (STP)/gr framework]        625.5529651392 +/-      42.5174984076 [-]
	Average loading excess [cm^3 (STP)/cm^3 framework]        238.1047188129 +/-      16.1834689741 [-]


Average Widom Rosenbluth factor:
================================
	Block[ 0] 0 [-]
	Block[ 1] 0 [-]
	Block[ 2] 0 [-]
	Block[ 3] 0 [-]
	Block[ 4] 0 [-]
	------------------------------------------------------------------------------
	[Ar] Average Widom Rosenbluth-weight:   0 +/- 0.000000 [-]

Average Widom chemical potential:
=================================
	Block[ 0] 0 [-]
	Block[ 1] 0 [-]
	Block[ 2] 0 [-]
	Block[ 3] 0 [-]
	Block[ 4] 0 [-]
	------------------------------------------------------------------------------
	[Ar] Average chemical potential:   0 +/- 0.000000 [K]

Average Widom Ideal-gas contribution:
=====================================
	Block[ 0] 0 [-]
	Block[ 1] 0 [-]
	Block[ 2] 0 [-]
	Block[ 3] 0 [-]
	Block[ 4] 0 [-]
	------------------------------------------------------------------------------
	[Ar] Average Widom Ideal-gas chemical potential:   0 +/- 0.000000 [-]

Average Widom excess contribution:
==================================
	Block[ 0] 0 [-]
	Block[ 1] 0 [-]
	Block[ 2] 0 [-]
	Block[ 3] 0 [-]
	Block[ 4] 0 [-]
	------------------------------------------------------------------------------
	[Ar] Average Widom excess chemical potential:   0 +/- 0.000000 [-]

Average Gibbs Widom Rosenbluth factor:
======================================
	Block[ 0] 0 [-]
	Block[ 1] 0 [-]
	Block[ 2] 0 [-]
	Block[ 3] 0 [-]
	Block[ 4] 0 [-]
	------------------------------------------------------------------------------
	[Ar] Average Gibbs Widom Rosenbluth-weight:   0 +/- 0.000000 [-]

Average Gibbs Widom chemical potential:
=======================================
	Block[ 0] 0 [-]
	Block[ 1] 0 [-]
	Block[ 2] 0 [-]
	Block[ 3] 0 [-]
	Block[ 4] 0 [-]
	------------------------------------------------------------------------------
	[Ar] Average Gibbs chemical potential:   0 +/- 0.000000 [K]

Average Gibbs Widom Ideal-gas contribution:
===========================================
	Block[ 0] 0 [-]
	Block[ 1] 0 [-]
	Block[ 2] 0 [-]
	Block[ 3] 0 [-]
	Block[ 4] 0 [-]
	------------------------------------------------------------------------------
	[Ar] Average Gibbs Ideal-gas chemical potential:   0 +/- 0.000000 [-]

Average Gibbs Widom excess contribution:
===========================================
	Block[ 0] 0 [-]
	Block[ 1] 0 [-]
	Block[ 2] 0 [-]
	Block[ 3] 0 [-]
	Block[ 4] 0 [-]
	------------------------------------------------------------------------------
	[Ar] Average Gibbs excess chemical potential:   0 +/- 0.000000 [-]

Average Henry coefficient:
==========================
	Block[ 0] 0 [mol/kg/Pa]
	Block[ 1] 0 [mol/kg/Pa]
	Block[ 2] 0 [mol/kg/Pa]
	Block[ 3] 0 [mol/kg/Pa]
	Block[ 4] 0 [mol/kg/Pa]
	------------------------------------------------------------------------------
	[Ar] Average Henry coefficient:  0 +/- 0 [mol/kg/Pa]

Average adsorption energy <U_gh>_1-<U_h>_0 obtained from Widom-insertion:
(Note: the total heat of adsorption is dH=<U_gh>_1-<U_h>_0 - <U_g> - RT)
=========================================================================

Simulation finished,  0 warnings


Mon Nov 16 20:12:47 2020
Simulation finished on Monday, November 16.
The end time was 08:12 PM.

