Compiler and run-time data
===========================================================================
RASPA 2.0.37
Compiled as a 64-bits application
Compiler: gcc 9.3.0
Compile Date = Mar 18 2020, Compile Time = 13:46:53

Fri Nov 13 18:38:14 2020
Simulation started on Friday, November 13.
The start time was 06:38 PM.

Cpu data:    x86_64
Cpu Model:   MacBookPro11,4
Host name:   B126028.local
OS release:  19.6.0
OS type:     Darwin
OS version:  19G2021


Simulation
===========================================================================
Dimensions: 3
Random number seed: 1605289094
RASPA directory set to: /Users/leopold/Personal/Programmierung/qm-codes/RASPA2/src/.libs
String appended to output-files: 
Number of cycles: 300
Number of initializing cycles: 300
Number of equilibration cycles: 0
Print every: 30
Rectangular boundary condition applied
Timestep: 0.000500
	Degrees of freedom:                        0
	Translational Degrees of freedom:          0
	Rotational Degrees of freedom:             0
	Degrees of freedom Framework:              0


Mutual consistent basic set of units:
======================================
Unit of temperature: Kelvin
Unit of length:      1e-10 [m]
Unit of time:        1e-12 [s]
Unit of mass:        1.66054e-27 [kg]
Unit of charge:      1.60218e-19 [C/particle]

Derived units and their conversion factors:
===========================================
Unit of energy:              1.66054e-23 [J]
Unit of force:               1.66054e-13 [N]
Unit of pressure:            1.66054e+07 [Pa]
Unit of velocity:            100 [m/s]
Unit of acceleration:        1e-08 [m^2/s]
Unit of diffusion:           1e-08 [m^2/s]
Unit of dipole moment:       1.60218e-29 [C.m]
Unit of electric potential:  0.000103643 [V]
Unit of electric field:      1.03643e+06 [V]
Unit of polarizability:      1.54587e-35 [-]
Unit of Coulomb potential:   167101.0800066561  [K]
Unit of dielectric constant: 0.0000154587       [s^2 C^2/(kg m^3)]
Unit of wave vectors:        5.3088374589       [cm^1]
Boltzmann constant:          0.8314464919       [-]

Internal conversion factors:
===========================================
Energy to Kelvin:                                    1.2027242847
FH correction factor                                 2.0211930949
Heat capacity conversion factor:                    10.0000088723
From Debye to internal units:                        4.8032067991
Isothermal compressibility conversion factor:        0.0000000602

Energy conversion factors:
===========================================
From mdyne/A to kcal/mol/A^2:           143.933
From mdyne/A to kj/mol/A^2:             602.214
From mdyne/A to K/A^2:                  72429.7
From mdyne A/rad^2 to kcal/mol/deg^2:   0.0438444


Properties computed
===========================================================================
Movies: no
Radial Distribution Function: no
Number of molecules GCMC histogram: no
Histogram of the molecule positions: no
Free energy profiles: no
Pore Size Distribution Function: no
End-to-end distance: no
Histogram of the energy of the system: no
Compute thermodynamic factors: no
Framework spacing histograms: no
Residence times histograms: no
Distance histograms: no
Bend Angle histograms: no
Dihedral angle histograms: no
Angle between planes histograms: no
Molecule properties: no
Infra-red spectra: no
Mean-squared displacement using modified order-N algorithm: no
Velocity-autocorrelation function modified order-N algorithm: no
Rotational velocity-autocorrelation function modified order-N algorithm: no
Molecular orientation-autocorrelation function modified order-N algorithm: no
Bond orientation-autocorrelation function modified order-N algorithm: no
Mean-squared displacement (conventional algorithm): no
Velocity-autocorrelation function (conventional algorithm): no
3D density grid for adsorbates: no
Compute cation an/or adsorption sites: no
dcTST snapshots: no
Compute pressure and stress: no


VTK
===========================================================================
VTK fractional-range position framework atoms: [-0.001000,1.001000] [-0.001000,1.001000] [-0.001000,1.001000]
VTK fractional-range position framework bonds: [-0.151000,1.151000] [-0.151000,1.151000] [-0.151000,1.151000]
VTK fractional-range com-position adsorbate molecules: [-0.101000,1.101000] [-0.101000,1.101000] [-0.101000,1.101000]
VTK fractional-range com-position cation molecules: [-0.101000,1.101000] [-0.101000,1.101000] [-0.101000,1.101000]
	3D free energy grid made for the full simulation-cell


Thermo/Baro-stat NHC parameters
===========================================================================
External temperature: 87 [K]
Beta: 0.0138244 [energy unit]
External Pressure: 1000 [Pa]


Thermostat chain-length: 3
Timescale parameter for thermostat: 0.150000 [ps]
Barostat chain-length:   3
Timescale parameter for barostat:   0.150000 [ps]

Number of Yoshida-Suzuki decomposition steps: 5
Number of respa steps: 5


Method and settings for electrostatics
===============================================================================
Dielectric constant of the medium : 1.000000
Charge from charge-equilibration: no
No electrostatics


CFC-RXMC parameters
===========================================================================
Number of reactions: 0


Rattle parameters
===========================================================================
Distance constraint type: r^2-r^2_0
Bend angle constraint type: theta-theta_0
Dihedral angle constraint type: phi-phi_0
Inversion-bend angle constraint type: chi-chi_0
Out-of-plane distance constraint type: r-r_0


Spectra parameters
===========================================================================
Compute normal modes: no


Minimization parameters
===========================================================================
Generalized coordinates are: Cartesian center-of-mass, elements of the orientational matrix p1,p2,p3 and strain
Potential derivatives are evaluated: analytically
Translation of the system is removed from the generalized Hessian: no
Rotation of the system is removed from the generalized Hessian: no
Maximum step-length: 0.3
Convergence factor: 1
Maximum number of minimization steps: 10000
Use gradients in the line-minimizations: yes
RMS gradient tolerance: 1e-06
Maximum gradient tolerance: 1e-06

Distance constraints: 0
Angle constraints: 0
Dihedral constraints: 0

Improper dihedral constraints: 0

Inversion-bend constraints: 0

Out-of-plane constraints: 0

Harmonic distance constraints: 0
Harmonic angle constraints: 0
Harmonic dihedral constraints: 0

Dihedral mid-point measurements: 0

All framework atoms are fixed

Fixed adsorbate atoms:  
Fixed adsorbate groups (center-of-mass):  
Fixed adsorbate groups (orientation):  

Fixed cation atoms:  
Fixed cation groups (center-of-mass):  
Fixed cation groups (orientation):  


dcTST parameters
===========================================================================
Free energy profiles computed: no
Free energy profiles written every 5000 cycles
Free energy mapping: mapped to a,b,c-coordinates
BarrierPosition:       0.0000000000       0.0000000000       0.0000000000
BarrierNormal:         0.0000000000       0.0000000000       0.0000000000
Start with a molecule on top of the barrier: no
Maximum distance to barrier (e.g. distance to minumum free energy):       0.0000000000 [A]
Maximum trajectory time:      10.0000000000 [ps]
Each configuration is used with 5 different initial velocities


Cbmc parameters
===========================================================================
Biasing method: using only the VDW part
Number of trial positions:                                       10
Number of trial positions (reinsertion):                         10
Number of trial positions (partial reinsertion):                 10
Number of trial positions (identity-change):                     10
Number of trial positions (Gibbs particle transfer):             10
Number of trial positions (insertion/deletion):                  10
Number of trial positions (Widom insertion):                     10
Number of trial positions coupled Torsion-selection:             100
Number of trial positions first bead:                            10
Number of trial positions first bead (reinsertion):              10
Number of trial positions first bead (partial reinsertion):      10
Number of trial positions first bead (identity-change):          10
Number of trial positions first bead (Gibbs particle transfer):  10
Number of trial positions first bead (insertion/deletion):       10
Number of trial positions first bead (Widom insertion):          10
Number of trial moves per open bead:                             150
Target acceptance ratio small-mc scheme:                         0.400000
Energy overlap criteria:                                         1e+07
Minimal Rosenbluth factor:                                       1e-150


Pseudo atoms: 3
===========================================================================
Pseudo Atom[   0] Name UNIT     Oxidation:          Element: H    pdb-name: H    Scat. Types:   1   1 Mass=1.000000000  B-factor:0.000   
                 Charge=1.000000000          Polarization=0.000000000  [A^3] (considered a charged atom and no polarization)  Interactions: yes
                 Anisotropic factor:    0.000 [-] (Absolute), Radius:    1.000 [A], Framework-atom:  no
Pseudo Atom[   1] Name Ar_gas   Oxidation: +0       Element: Ar   pdb-name: Ar   Scat. Types:  19  18 Mass=39.950000000 B-factor:1.000   
                 Charge=0.000000000          Polarization=0.000000000  [A^3] (considered a chargeless atom and no polarization)  Interactions: yes
                 Anisotropic factor:    0.000 [-] (Relative), Radius:    1.000 [A], Framework-atom:  no
Pseudo Atom[   2] Name C        Oxidation:          Element: C    pdb-name: C    Scat. Types:   7   6 Mass=12.010735897 B-factor:0.000   
                 Charge=0.000000000  (-na-)  Polarization=1.760000000  [A^3] (considered a chargeless atom and no polarization)  Interactions: yes
                 Anisotropic factor:    0.000 [-] (Absolute), Radius:    0.750 [A], Framework-atom: yes (charge definition not found)


Forcefield: Local
===========================================================================
Minimal distance: 1
CutOff VDW : 8.000000 (64.000000)
CutOff VDW switching on: 7.200000 (51.840000)
CutOff charge-charge : 12.000000 (144.000000)
CutOff charge-charge switching on: 7.800000 (60.840000)
CutOff charge-bonddipole : 12.000000 (144.000000)
CutOff charge-bondipole switching on: 8.400000 (70.560000)
CutOff bonddipole-bonddipole : 12.000000 (144.000000)
CutOff bonddipole-bondipole switching on: 9.000000 (81.000000)
Polarization is neglected
TailCorrections are used
All potentials are unshifted !!!!!!

General mixing rule: Lorentz-Berthelot mixing rules are used FIRST for cross terms
0 cross terms are overwritten using the individual mixing rules from the file 'force_field_mixing_rules.def'
and then 0 terms are overwritten using the specific interactions from the file 'force_field.def'

The force field and all the interactions:
 Ar_gas -  Ar_gas [LENNARD_JONES] p_0/k_B: 119.80000 [K], p_1: 3.40000 [A], shift/k_B:   0.00000000 [K], tailcorrection: yes
 Ar_gas -       C [LENNARD_JONES] p_0/k_B:  75.72159 [K], p_1: 3.43649 [A], shift/k_B:   0.00000000 [K], tailcorrection: yes
      C -       C [LENNARD_JONES] p_0/k_B:  47.86110 [K], p_1: 3.47299 [A], shift/k_B:   0.00000000 [K], tailcorrection: yes


MoleculeDefinitions:
===========================================================================
Component 0 [Ar] (Adsorbate molecule)

	MoleculeDefinitions: Local
	Component contains no atoms with charge
	Component contains no atoms with point dipoles (polarization)
	Component has a net charge of 0.000000

	Ideal chain Rosenbluth weight: 1
	Ideal chain total energy: 0.000000

	Critical temparure [K]: 150.860000
	Critical pressure [Pa]: 4898000.000000
	Acentric factor [-]: 0.000000

	RXMC partition factor ln(q/V) [ln(A^(-3))]:       0.0000000000

	Vapour=stable, Liquid=metastable

	MolFraction:           1.0000000000 [-]
	Compressibility:       0.9996938907 [-]

	Density of the bulk fluid phase:       0.0552454083 [kg/m^3]

	Binary mixture EOS parameters:  (0): 0.000000

	Amount of excess molecules:       0.0040959908 [-]

	Conversion factor molecules/unit cell -> mol/kg:      20.8147112840 [-]
	Conversion factor molecules/unit cell -> mg/g:     831.5477157974 [-]
	Conversion factor molecules/unit cell -> cm^3 STP/gr:     466.5404339136 [-]
	Conversion factor molecules/unit cell -> cm^3 STP/cm^3:     177.5796535584 [-]
	Conversion factor mol/kg -> cm^3 STP/gr:      22.4139757476 [-]
	Conversion factor mol/kg -> cm^3 STP/cm^3:       8.5314492781 [-]

	Partial pressure:      1000.00000000000000 [Pa]
	                          7.50000000000000 [Torr]
	                          0.01000000000000 [bar]
	                          0.00986923266716 [atm]

	Fugacity coefficient:       0.9996939749 [-]

	Partial fugacity:       999.69397486767548 [Pa]
	                          7.49770481150757 [Torr]
	                          0.00999693974868 [bar]
	                          0.00986621243393 [atm]

	Molecule contains 1 number of atoms
		atom:    0  is of type:    1 [    Ar_gas] (group: 0)

	Molecule contains 0 chirality centers

	Molecule contains 1 number of groups

		group: 0 containing: 1 elements
		-------------------------------------------------
		the group represents a point particle
		Mass: 39.950000 [a.u.]
		Mass: 11.304027 [kg/m^3]

		Rotational Degrees of freedom: 0
		Diagonalized inertia vector:       0.0000000000
		                                   0.0000000000
		                                   0.0000000000
		number of atoms: 1
			element: 0 atom: 0 [    Ar_gas] Charge:  0.000000 Anisotropy: 0.000000 Position:  0.000000 -0.000000  0.000000 Connectivity: 0 ()
		number of permanent dipoles: 0
		number of polarizabilities: 0

		Dipole:           0.0000000000 [D]
		Quadrupole:       0.0000000000       0.0000000000       0.0000000000 [D Angstrom]
		Quadrupole tensor [D Angstrom]
				       0.0000000000       0.0000000000       0.0000000000
				       0.0000000000       0.0000000000       0.0000000000
				       0.0000000000       0.0000000000       0.0000000000

	Starting bead for growth               : 0

	Degrees of freedom                     : 0
	Translational degrees of freedom       : 0
	Rotational degrees of freedom          : 0
	Vibrational degrees of freedom         : 0
	Constraint degrees of freedom          : 0

	Number of atoms                        : 1

	Number of constraint bonds             : 0
	Number of constraint bends             : 0
	Number of constraint inversion bends   : 0
	Number of constraint torsions          : 0
	Number of constraint improper torsions : 0
	Number of constraint improper torsions : 0

	Number of bonds                        : 0
	Number of Urey-Bradleys                : 0
	Number of bends                        : 0
	Number of inversion bends              : 0
	Number of torsions                     : 0
	Number of improper torsions            : 0
	Number of improper torsions            : 0

	Number of bond/bond cross terms        : 0
	Number of bond/bend cross terms        : 0
	Number of bend/bend cross terms        : 0
	Number of stretch/torsion cross terms  : 0
	Number of bend/torsion cross terms     : 0

	Number of charges                      : 0
	Number of bond-dipoles                 : 0

	Number of intra Van der Waals                             : 0
	Number of intra charge-charge Coulomb                     : 0
	Number of intra charge-bonddipole Coulomb                 : 0
	Number of intra bonddipole-bonddipole Coulomb             : 0

	Number of excluded intra charge-charge Coulomb                     : 0
	Number of excluded intra charge-bonddipole Coulomb                 : 0
	Number of excluded intra bonddipole-bonddipole Coulomb             : 0

	Number of cbmc-config moves                               : 0

	Particle Moves:             
		ProbabilityTranslationMove:                  50.000000
			TranslationDirection:      XYZ
		Percentage of random translation moves:            0.000000
		Percentage of rotation moves:                      0.000000
		Percentage of random rotation moves:               0.000000
		Percentage of partial reinsertion moves:           0.000000
		Percentage of reinsertion moves:                   25.000000
		Percentage of reinsertion-in-place moves:          0.000000
		Percentage of reinsertion-in-plane moves:          0.000000
		Percentage of identity-change moves:               0.000000
		Percentage of swap (insert/delete) moves:          25.000000
		Percentage of CF swap lambda moves:                0.000000
		Percentage of CB/CFMC swap lambda moves:           0.000000
		Percentage of Widom insertion moves:               0.000000
		Percentage of CF-Widom insertion moves:            0.000000
		Percentage of Gibbs Widom insertion moves:         0.000000
		Percentage of surface-area moves:                  0.000000
		Percentage of Gibbs particle-transfer moves:       0.000000
		Percentage of Gibbs identity-change moves:         0.000000
		Percentage of CF Gibbs lambda-transfer moves:      0.000000
		Percentage of CB/CFMC Gibbs lambda-transfer moves: 0.000000
		Percentage of exchange frac./int. particle moves:  0.000000
		Percentage of fractional mol. to other box moves:  0.000000
		Percentage of lambda-change moves:                 0.000000
		Percentage of fractional to integer moves:         0.000000

	System Moves:
		Percentage of parallel-tempering moves:            0.000000
		Percentage of hyper-parallel-tempering moves:      0.000000
		Percentage of parallel-mol-fraction moves:         0.000000
			   Component A: 0 B: 1
		Percentage of chiral inversion moves:              0.000000
		Percentage of Hybrid-NVE moves:                    0.000000
		Percentage of Hybrid-NPH moves:                    0.000000
		Percentage of Hybrid-NPHPR moves:                  0.000000
		Percentage of volume-change moves:                 0.000000
		Percentage of box-shape-change moves:              0.000000
		Percentage of Gibbs volume-change moves:           0.000000
		Percentage of framework-change moves:              0.000000
		Percentage of framework-shift moves:               0.000000
		Percentage of reactive MC moves:                   0.000000

	Moves are restricted: No
	No biased sampling used for this component


	number of identity-config changes: 1
	--------------------------------------------
	nr fixed 1: 0 

	Number of pockets blocked in a unitcell: 0
		Pockets are NOT blocked for this component



Framework Status
===========================================================================
Lowenstein's rule obeyed by framework
	Framework is modelled as: rigid

	Number of charges:                               0
	Number of bonddipoles:                           0


System Properties
===========================================================================
Unit cell size: 2.460000 4.260000 20.000000
Cell angles (radians)  alpha: 1.570796 beta: 1.570796 gamma: 1.570796
Cell angles (degrees)  alpha: 90.000000 beta: 90.000000 gamma: 90.000000
Number of unitcells [a]: 7
Number of unitcells [b]: 4
Number of unitcells [c]: 1

RECTANGULAR Boundary conditions: alpha=beta=gamma=90 degrees

Cartesian axis A is collinear with crystallographic axis a
Cartesian axis B is collinear with (axb)xA
Cartesian axis C is collinear with (axb)

lengths of cell vectors:
 17.22000  17.04000  20.00000
cosines of cell angles:
  0.00000   0.00000   0.00000
perpendicular cell widths:
 17.22000  17.04000  20.00000
volume of the cell:  5868.575999999999 (A^3)

Orthogonalization matrix Box
Transforms fractional coordinates abc into orthonormal Cartesian coordinates xyz
Deorthogonalization matrix InverseBox
Transforms orthonormal Cartesian coordinates xyz into fractional coordinates xyz

Box[0]:
	   17.220000000000     0.000000000000     0.000000000000
	    0.000000000000    17.040000000000     0.000000000000
	    0.000000000000     0.000000000000    20.000000000000

Inverse box[0]:
	    0.058072009292    -0.000000000000    -0.000000000000
	    0.000000000000     0.058685446009    -0.000000000000
	    0.000000000000     0.000000000000     0.050000000000


Unitcell box[0]:
	    2.460000000000     0.000000000000     0.000000000000
	    0.000000000000     4.260000000000     0.000000000000
	    0.000000000000     0.000000000000    20.000000000000

Unitcell inverse box[0]:
	    0.406504065041    -0.000000000000    -0.000000000000
	    0.000000000000     0.234741784038    -0.000000000000
	    0.000000000000     0.000000000000     0.050000000000

lengths of cell vectors (inverse box):
  0.05807   0.05869   0.05000
cosines of cell angles (inverse box):
 -0.00000  -0.00000  -0.00000
perpendicular cell widths (inverse):
  0.05807   0.05869   0.05000
volume of the cell:  5868.575999999999 (A^3)

No replicas are used
Framework is simulated as 'rigid'
Number of framework atoms: 112
Number of framework atoms in the unit cell: 4
Framework Mass:  1345.202420437623 [g/mol]
Framework Density:   380.630789208962 [kg/m^3]    2.6272178403598 [cm^3/g]
Helium void fraction:    0.83810000
Available pore volume: 4918.45354560 [A^3]    2.20187127 [cm^3/g]
Conversion factor from molecule/unit cell -> kmol/m^3: 0.282954, kmol/m^3 accesible pore volume: 0.337614

Number Of Frameworks (per system): 1
----------------------------------------------------------------------
Framework name: framework_1
Space group: 1
	Identifier: 1
	short international Hermann-Mauguin symbol: P 1
	long international Hermann-Mauguin symbol: P 1
	Hall symbol: P 1
	Number of lattice translations: 1 [ (0,0,0) ]
	acentric/centric: acentric
	chiral: no
	enantiomorphic: no
	number of operators: 1
		'x,y,z'
Framework is simulated as 'rigid'
Shift: 0.000000 0.000000 0.000000
Number of framework atoms: 112
Number of asymmetric atoms: 4
Number of free framework atoms: 0
Number of fixed framework atoms: 112
Number of framework atoms in the unit cell: 4
Framework Mass:  1345.202420437623 [g/mol]
Framework Density:   380.630789208962 [kg/m^3]
Framework has net charge: 0.000000
         largest charge : 0.000000
         smallest charge: 0.000000

Using FULL Host-guest interaction calculation (for testing purposes)

Current Atom Status
===========================================================================
Number of framework atoms        : 112
Number of cations molecules      : 0
Number of adsorbate molecules    : 0
Component    0 :    0 molecules
Pseudo Atoms    0 [    UNIT]:    0 atoms
Pseudo Atoms    1 [  Ar_gas]:    0 atoms
Pseudo Atoms    2 [       C]:  112 atoms


Current (initial full energy) Energy Status
===========================================================================

Internal energy:
Host stretch energy:                                            0.00000000
Host UreyBradley energy:                                        0.00000000
Host bend energy:                                               0.00000000
Host inversion-bend energy:                                     0.00000000
Host torsion energy:                                            0.00000000
Host improper torsion energy:                                   0.00000000
Host out-of-plane energy:                                       0.00000000
Host stretch/stretch energy:                                    0.00000000
Host bend/bend energy:                                          0.00000000
Host stretch/bend energy:                                       0.00000000
Host stretch/torsion energy:                                    0.00000000
Host bend/torsion energy:                                       0.00000000

Adsorbate stretch energy:                                       0.00000000
Adsorbate UreyBradley energy:                                   0.00000000
Adsorbate bend energy:                                          0.00000000
Adsorbate inversion-bend energy:                                0.00000000
Adsorbate torsion energy:                                       0.00000000
Adsorbate improper torsion energy:                              0.00000000
Adsorbate out-of-plane energy:                                  0.00000000
Adsorbate stretch/stretch energy:                               0.00000000
Adsorbate bend/bend energy:                                     0.00000000
Adsorbate stretch/bend energy:                                  0.00000000
Adsorbate stretch/torsion energy:                               0.00000000
Adsorbate bend/torsion energy:                                  0.00000000
Adsorbate intra VDW energy:                                     0.00000000
Adsorbate intra charge-charge Coulomb energy:                   0.00000000
Adsorbate intra charge-bonddipole Coulomb energy:               0.00000000
Adsorbate intra bonddipole-bonddipole Coulomb energy:           0.00000000

Cation stretch energy:                                          0.00000000
Cation UreyBradley energy:                                      0.00000000
Cation bend energy:                                             0.00000000
Cation inversion-bend energy:                                   0.00000000
Cation torsion energy:                                          0.00000000
Cation improper torsion energy:                                 0.00000000
Cation out-of-plane energy:                                     0.00000000
Cation stretch/stretch energy:                                  0.00000000
Cation bend/bend energy:                                        0.00000000
Cation stretch/bend energy:                                     0.00000000
Cation stretch/torsion energy:                                  0.00000000
Cation bend/torsion energy:                                     0.00000000
Cation intra VDW energy:                                        0.00000000
Cation intra charge-charge Coulomb energy:                      0.00000000
Cation intra charge-bonddipole Coulomb energy:                  0.00000000
Cation intra bonddipole-bonddipole Coulomb energy:              0.00000000

Host/Host energy:                                             0.00000000
	Host/Host VDW energy:                                         0.00000000
	Host/Host Coulomb energy:                                     0.00000000
	Host/Host charge-charge Real energy:                          0.00000000
	Host/Host charge-charge Fourier energy:                       0.00000000
	Host/Host charge-bonddipole Real energy:                      0.00000000
	Host/Host charge-bonddipole Fourier energy:                   0.00000000
	Host/Host bondipole-bonddipole Real energy:                   0.00000000
	Host/Host bondipole-bonddipole Fourier energy:                0.00000000

Host/Adsorbate energy:                                        0.00000000
	Host/Adsorbate VDW energy:                                    0.00000000
	Host/Adsorbate Coulomb energy:                                0.00000000
	Host/Adsorbate charge-charge Real energy:                     0.00000000
	Host/Adsorbate charge-charge Fourier energy:                  0.00000000
	Host/Adsorbate charge-bonddipole Real energy:                 0.00000000
	Host/Adsorbate charge-bonddipole Fourier energy:              0.00000000
	Host/Adsorbate bondipole-bonddipole Real energy:              0.00000000
	Host/Adsorbate bondipole-bonddipole Fourier energy:           0.00000000

Host/Cation energy:                                           0.00000000
	Host/Cation VDW energy:                                       0.00000000
	Host/Cation Coulomb energy:                                   0.00000000
	Host/Cation charge-charge Real energy:                        0.00000000
	Host/Cation charge-charge Fourier energy:                     0.00000000
	Host/Cation charge-bonddipole Real energy:                    0.00000000
	Host/Cation charge-bonddipole Fourier energy:                 0.00000000
	Host/Cation bondipole-bonddipole Real energy:                 0.00000000
	Host/Cation bondipole-bonddipole Fourier energy:              0.00000000

Adsorbate/Adsorbate energy:                                        0.00000000
	Adsorbate/Adsorbate VDW energy:                                    0.00000000
	Adsorbate/Adsorbate Coulomb energy:                                0.00000000
	Adsorbate/Adsorbate charge-charge Real energy:                     0.00000000
	Adsorbate/Adsorbate charge-charge Fourier energy:                  0.00000000
	Adsorbate/Adsorbate charge-bonddipole Real energy:                 0.00000000
	Adsorbate/Adsorbate charge-bonddipole Fourier energy:              0.00000000
	Adsorbate/Adsorbate bondipole-bonddipole Real energy:              0.00000000
	Adsorbate/Adsorbate bondipole-bonddipole Fourier energy:           0.00000000

Adsorbate/Cation energy:                                           0.00000000
	Adsorbate/Cation VDW energy:                                       0.00000000
	Adsorbate/Cation Coulomb energy:                                   0.00000000
	Adsorbate/Cation charge-charge Real energy:                        0.00000000
	Adsorbate/Cation charge-charge Fourier energy:                     0.00000000
	Adsorbate/Cation charge-bonddipole Real energy:                    0.00000000
	Adsorbate/Cation charge-bonddipole Fourier energy:                 0.00000000
	Adsorbate/Cation bondipole-bonddipole Real energy:                 0.00000000
	Adsorbate/Cation bondipole-bonddipole Fourier energy:              0.00000000

Cation/Cation energy:                                           0.00000000
	Cation/Cation VDW energy:                                       0.00000000
	Cation/Cation Coulomb energy:                                   0.00000000
	Cation/Cation charge-charge Real energy:                        0.00000000
	Cation/Cation charge-charge Fourier energy:                     0.00000000
	Cation/Cation charge-bonddipole Real energy:                    0.00000000
	Cation/Cation charge-bonddipole Fourier energy:                 0.00000000
	Cation/Cation bondipole-bonddipole Real energy:                 0.00000000
	Cation/Cation bondipole-bonddipole Fourier energy:              0.00000000

Polarization energy:
	Host polarization energy:                                     0.00000000
	Adsorbate polarization energy:                                0.00000000
	Cation polarization energy:                                   0.00000000
	Host back-polarization energy:                                     0.00000000
	Adsorbate back-polarization energy:                                0.00000000
	Cation back-polarization energy:                                   0.00000000

Tail-correction energy:                                   -2930.79674349

Distance constraints energy:                                  0.00000000
Angle constraints energy:                                     0.00000000
Dihedral constraints energy:                                  0.00000000
Inversion-bend constraints energy:                            0.00000000
Out-of-plane distance constraints energy:                     0.00000000
Exclusion constraints energy:                                 0.00000000

===================================================================
Total energy: -2930.796743492017
	Total Van der Waals: 0.000000
	Total Coulomb: 0.000000

	Total Polarization: 0.000000







+++++++++++++++++++++++++++++++++++++++++++++++++++++++++++++++++++++++++
Starting simulation
+++++++++++++++++++++++++++++++++++++++++++++++++++++++++++++++++++++++++

[Init] Current cycle: 0 out of 300
========================================================================================================

Net charge: 0 (F: 0, A: 0, C: 0)
Current Box:  17.22000   0.00000   0.00000 [A]
               0.00000  17.04000   0.00000 [A]
               0.00000   0.00000  20.00000 [A]
Box-lengths:  17.22000  17.04000  20.00000 Box-angles:   90.00000  90.00000  90.00000 [degrees]
Volume: 5868.57600 [A^3]

Loadings per component:
----------------------------------------------------------------------------------------------------------------------------------------------------
Component 0 (Ar), current number of integer/fractional/reaction molecules: 0/0/0, density:   0.00000 [kg/m^3]
	absolute adsorption:   0.00000 [mol/uc],         0.0000 [mol/kg],              0.0000 [mg/g]
	                                                 0.0000 [cm^3 STP/g],          0.0000 [cm^3 STP/cm^3]
	excess adsorption:    -0.00015 [mol/uc],        -0.0030 [mol/kg],             -0.1216 [mg/g]
	                                                -0.0682 [cm^3 STP/g],         -0.0260 [cm^3 STP/cm^3]
----------------------------------------------------------------------------------------------------------------------------------------------------
Degrees of freedom: 0 0 0 0
Number of Framework-atoms:    112
Number of Adsorbates:           0 (0 integer, 0 fractional, 0 reaction)
Number of Cations:              0 (0 integer, 0 fractional, 0 reaction

Current total potential energy:             -2930.7967434920 [K]
	Current Host-Host energy:                     0.0000000000 [K]
	Current Host-Adsorbate energy:                0.0000000000 [K]
	Current Host-Cation energy:                   0.0000000000 [K]
	Current Adsorbate-Adsorbate energy:           0.0000000000 [K]
	Current Cation-Cation energy:                 0.0000000000 [K]
	Current Adsorbate-Cation energy:              0.0000000000 [K]



[Init] Current cycle: 30 out of 300
========================================================================================================

Net charge: 0 (F: 0, A: 0, C: 0)
Current Box:  17.22000   0.00000   0.00000 [A]
               0.00000  17.04000   0.00000 [A]
               0.00000   0.00000  20.00000 [A]
Box-lengths:  17.22000  17.04000  20.00000 Box-angles:   90.00000  90.00000  90.00000 [degrees]
Volume: 5868.57600 [A^3]

Loadings per component:
----------------------------------------------------------------------------------------------------------------------------------------------------
Component 0 (Ar), current number of integer/fractional/reaction molecules: 30/0/0, density: 339.12101 [kg/m^3]
	absolute adsorption:   1.07143 [mol/uc],        22.3015 [mol/kg],            890.9440 [mg/g]
	                                               499.8648 [cm^3 STP/g],        190.2639 [cm^3 STP/cm^3]
	excess adsorption:     1.07128 [mol/uc],        22.2984 [mol/kg],            890.8223 [mg/g]
	                                               499.7965 [cm^3 STP/g],        190.2379 [cm^3 STP/cm^3]
----------------------------------------------------------------------------------------------------------------------------------------------------
Degrees of freedom: 90 0 90 0
Number of Framework-atoms:    112
Number of Adsorbates:          30 (30 integer, 0 fractional, 0 reaction)
Number of Cations:              0 (0 integer, 0 fractional, 0 reaction

Current total potential energy:            -42715.7114527303 [K]
	Current Host-Host energy:                     0.0000000000 [K]
	Current Host-Adsorbate energy:           -32132.7358832635 [K]
	Current Host-Cation energy:                   0.0000000000 [K]
	Current Adsorbate-Adsorbate energy:       -4856.9084708486 [K]
	Current Cation-Cation energy:                 0.0000000000 [K]
	Current Adsorbate-Cation energy:              0.0000000000 [K]



[Init] Current cycle: 60 out of 300
========================================================================================================

Net charge: 0 (F: 0, A: 0, C: 0)
Current Box:  17.22000   0.00000   0.00000 [A]
               0.00000  17.04000   0.00000 [A]
               0.00000   0.00000  20.00000 [A]
Box-lengths:  17.22000  17.04000  20.00000 Box-angles:   90.00000  90.00000  90.00000 [degrees]
Volume: 5868.57600 [A^3]

Loadings per component:
----------------------------------------------------------------------------------------------------------------------------------------------------
Component 0 (Ar), current number of integer/fractional/reaction molecules: 33/0/0, density: 373.03311 [kg/m^3]
	absolute adsorption:   1.17857 [mol/uc],        24.5316 [mol/kg],            980.0384 [mg/g]
	                                               549.8512 [cm^3 STP/g],        209.2903 [cm^3 STP/cm^3]
	excess adsorption:     1.17843 [mol/uc],        24.5286 [mol/kg],            979.9167 [mg/g]
	                                               549.7830 [cm^3 STP/g],        209.2643 [cm^3 STP/cm^3]
----------------------------------------------------------------------------------------------------------------------------------------------------
Degrees of freedom: 99 0 99 0
Number of Framework-atoms:    112
Number of Adsorbates:          33 (33 integer, 0 fractional, 0 reaction)
Number of Cations:              0 (0 integer, 0 fractional, 0 reaction

Current total potential energy:            -50970.1351023183 [K]
	Current Host-Host energy:                     0.0000000000 [K]
	Current Host-Adsorbate energy:           -37841.6511115754 [K]
	Current Host-Cation energy:                   0.0000000000 [K]
	Current Adsorbate-Adsorbate energy:       -7071.9066093751 [K]
	Current Cation-Cation energy:                 0.0000000000 [K]
	Current Adsorbate-Cation energy:              0.0000000000 [K]



[Init] Current cycle: 90 out of 300
========================================================================================================

Net charge: 0 (F: 0, A: 0, C: 0)
Current Box:  17.22000   0.00000   0.00000 [A]
               0.00000  17.04000   0.00000 [A]
               0.00000   0.00000  20.00000 [A]
Box-lengths:  17.22000  17.04000  20.00000 Box-angles:   90.00000  90.00000  90.00000 [degrees]
Volume: 5868.57600 [A^3]

Loadings per component:
----------------------------------------------------------------------------------------------------------------------------------------------------
Component 0 (Ar), current number of integer/fractional/reaction molecules: 37/0/0, density: 418.24925 [kg/m^3]
	absolute adsorption:   1.32143 [mol/uc],        27.5052 [mol/kg],           1098.8309 [mg/g]
	                                               616.4999 [cm^3 STP/g],        234.6588 [cm^3 STP/cm^3]
	excess adsorption:     1.32128 [mol/uc],        27.5021 [mol/kg],           1098.7093 [mg/g]
	                                               616.4316 [cm^3 STP/g],        234.6329 [cm^3 STP/cm^3]
----------------------------------------------------------------------------------------------------------------------------------------------------
Degrees of freedom: 111 0 111 0
Number of Framework-atoms:    112
Number of Adsorbates:          37 (37 integer, 0 fractional, 0 reaction)
Number of Cations:              0 (0 integer, 0 fractional, 0 reaction

Current total potential energy:            -57561.6208497741 [K]
	Current Host-Host energy:                     0.0000000000 [K]
	Current Host-Adsorbate energy:           -42703.3086855065 [K]
	Current Host-Cation energy:                   0.0000000000 [K]
	Current Adsorbate-Adsorbate energy:       -8346.6349016311 [K]
	Current Cation-Cation energy:                 0.0000000000 [K]
	Current Adsorbate-Cation energy:              0.0000000000 [K]



[Init] Current cycle: 120 out of 300
========================================================================================================

Net charge: 0 (F: 0, A: 0, C: 0)
Current Box:  17.22000   0.00000   0.00000 [A]
               0.00000  17.04000   0.00000 [A]
               0.00000   0.00000  20.00000 [A]
Box-lengths:  17.22000  17.04000  20.00000 Box-angles:   90.00000  90.00000  90.00000 [degrees]
Volume: 5868.57600 [A^3]

Loadings per component:
----------------------------------------------------------------------------------------------------------------------------------------------------
Component 0 (Ar), current number of integer/fractional/reaction molecules: 38/0/0, density: 429.55328 [kg/m^3]
	absolute adsorption:   1.35714 [mol/uc],        28.2485 [mol/kg],           1128.5290 [mg/g]
	                                               633.1620 [cm^3 STP/g],        241.0010 [cm^3 STP/cm^3]
	excess adsorption:     1.35700 [mol/uc],        28.2455 [mol/kg],           1128.4074 [mg/g]
	                                               633.0938 [cm^3 STP/g],        240.9750 [cm^3 STP/cm^3]
----------------------------------------------------------------------------------------------------------------------------------------------------
Degrees of freedom: 114 0 114 0
Number of Framework-atoms:    112
Number of Adsorbates:          38 (38 integer, 0 fractional, 0 reaction)
Number of Cations:              0 (0 integer, 0 fractional, 0 reaction

Current total potential energy:            -59409.8986333747 [K]
	Current Host-Host energy:                     0.0000000000 [K]
	Current Host-Adsorbate energy:           -43700.6113455728 [K]
	Current Host-Cation energy:                   0.0000000000 [K]
	Current Adsorbate-Adsorbate energy:       -9081.2601433716 [K]
	Current Cation-Cation energy:                 0.0000000000 [K]
	Current Adsorbate-Cation energy:              0.0000000000 [K]



[Init] Current cycle: 150 out of 300
========================================================================================================

Net charge: 0 (F: 0, A: 0, C: 0)
Current Box:  17.22000   0.00000   0.00000 [A]
               0.00000  17.04000   0.00000 [A]
               0.00000   0.00000  20.00000 [A]
Box-lengths:  17.22000  17.04000  20.00000 Box-angles:   90.00000  90.00000  90.00000 [degrees]
Volume: 5868.57600 [A^3]

Loadings per component:
----------------------------------------------------------------------------------------------------------------------------------------------------
Component 0 (Ar), current number of integer/fractional/reaction molecules: 39/0/0, density: 440.85732 [kg/m^3]
	absolute adsorption:   1.39286 [mol/uc],        28.9919 [mol/kg],           1158.2272 [mg/g]
	                                               649.8242 [cm^3 STP/g],        247.3431 [cm^3 STP/cm^3]
	excess adsorption:     1.39271 [mol/uc],        28.9889 [mol/kg],           1158.1055 [mg/g]
	                                               649.7559 [cm^3 STP/g],        247.3171 [cm^3 STP/cm^3]
----------------------------------------------------------------------------------------------------------------------------------------------------
Degrees of freedom: 117 0 117 0
Number of Framework-atoms:    112
Number of Adsorbates:          39 (39 integer, 0 fractional, 0 reaction)
Number of Cations:              0 (0 integer, 0 fractional, 0 reaction

Current total potential energy:            -61538.3697740962 [K]
	Current Host-Host energy:                     0.0000000000 [K]
	Current Host-Adsorbate energy:           -44590.2852034543 [K]
	Current Host-Cation energy:                   0.0000000000 [K]
	Current Adsorbate-Adsorbate energy:      -10202.6775798270 [K]
	Current Cation-Cation energy:                 0.0000000000 [K]
	Current Adsorbate-Cation energy:              0.0000000000 [K]



[Init] Current cycle: 180 out of 300
========================================================================================================

Net charge: 0 (F: 0, A: 0, C: 0)
Current Box:  17.22000   0.00000   0.00000 [A]
               0.00000  17.04000   0.00000 [A]
               0.00000   0.00000  20.00000 [A]
Box-lengths:  17.22000  17.04000  20.00000 Box-angles:   90.00000  90.00000  90.00000 [degrees]
Volume: 5868.57600 [A^3]

Loadings per component:
----------------------------------------------------------------------------------------------------------------------------------------------------
Component 0 (Ar), current number of integer/fractional/reaction molecules: 41/0/0, density: 463.46538 [kg/m^3]
	absolute adsorption:   1.46429 [mol/uc],        30.4787 [mol/kg],           1217.6234 [mg/g]
	                                               683.1485 [cm^3 STP/g],        260.0273 [cm^3 STP/cm^3]
	excess adsorption:     1.46414 [mol/uc],        30.4756 [mol/kg],           1217.5018 [mg/g]
	                                               683.0802 [cm^3 STP/g],        260.0014 [cm^3 STP/cm^3]
----------------------------------------------------------------------------------------------------------------------------------------------------
Degrees of freedom: 123 0 123 0
Number of Framework-atoms:    112
Number of Adsorbates:          41 (41 integer, 0 fractional, 0 reaction)
Number of Cations:              0 (0 integer, 0 fractional, 0 reaction

Current total potential energy:            -62648.4175715837 [K]
	Current Host-Host energy:                     0.0000000000 [K]
	Current Host-Adsorbate energy:           -44855.3611371491 [K]
	Current Host-Cation energy:                   0.0000000000 [K]
	Current Adsorbate-Adsorbate energy:      -10809.7998570789 [K]
	Current Cation-Cation energy:                 0.0000000000 [K]
	Current Adsorbate-Cation energy:              0.0000000000 [K]



[Init] Current cycle: 210 out of 300
========================================================================================================

Net charge: 0 (F: 0, A: 0, C: 0)
Current Box:  17.22000   0.00000   0.00000 [A]
               0.00000  17.04000   0.00000 [A]
               0.00000   0.00000  20.00000 [A]
Box-lengths:  17.22000  17.04000  20.00000 Box-angles:   90.00000  90.00000  90.00000 [degrees]
Volume: 5868.57600 [A^3]

Loadings per component:
----------------------------------------------------------------------------------------------------------------------------------------------------
Component 0 (Ar), current number of integer/fractional/reaction molecules: 38/0/0, density: 429.55328 [kg/m^3]
	absolute adsorption:   1.35714 [mol/uc],        28.2485 [mol/kg],           1128.5290 [mg/g]
	                                               633.1620 [cm^3 STP/g],        241.0010 [cm^3 STP/cm^3]
	excess adsorption:     1.35700 [mol/uc],        28.2455 [mol/kg],           1128.4074 [mg/g]
	                                               633.0938 [cm^3 STP/g],        240.9750 [cm^3 STP/cm^3]
----------------------------------------------------------------------------------------------------------------------------------------------------
Degrees of freedom: 114 0 114 0
Number of Framework-atoms:    112
Number of Adsorbates:          38 (38 integer, 0 fractional, 0 reaction)
Number of Cations:              0 (0 integer, 0 fractional, 0 reaction

Current total potential energy:            -58781.9735517859 [K]
	Current Host-Host energy:                     0.0000000000 [K]
	Current Host-Adsorbate energy:           -43110.2988186763 [K]
	Current Host-Cation energy:                   0.0000000000 [K]
	Current Adsorbate-Adsorbate energy:       -9043.6475886792 [K]
	Current Cation-Cation energy:                 0.0000000000 [K]
	Current Adsorbate-Cation energy:              0.0000000000 [K]



[Init] Current cycle: 240 out of 300
========================================================================================================

Net charge: 0 (F: 0, A: 0, C: 0)
Current Box:  17.22000   0.00000   0.00000 [A]
               0.00000  17.04000   0.00000 [A]
               0.00000   0.00000  20.00000 [A]
Box-lengths:  17.22000  17.04000  20.00000 Box-angles:   90.00000  90.00000  90.00000 [degrees]
Volume: 5868.57600 [A^3]

Loadings per component:
----------------------------------------------------------------------------------------------------------------------------------------------------
Component 0 (Ar), current number of integer/fractional/reaction molecules: 37/0/0, density: 418.24925 [kg/m^3]
	absolute adsorption:   1.32143 [mol/uc],        27.5052 [mol/kg],           1098.8309 [mg/g]
	                                               616.4999 [cm^3 STP/g],        234.6588 [cm^3 STP/cm^3]
	excess adsorption:     1.32128 [mol/uc],        27.5021 [mol/kg],           1098.7093 [mg/g]
	                                               616.4316 [cm^3 STP/g],        234.6329 [cm^3 STP/cm^3]
----------------------------------------------------------------------------------------------------------------------------------------------------
Degrees of freedom: 111 0 111 0
Number of Framework-atoms:    112
Number of Adsorbates:          37 (37 integer, 0 fractional, 0 reaction)
Number of Cations:              0 (0 integer, 0 fractional, 0 reaction

Current total potential energy:            -58780.9007395472 [K]
	Current Host-Host energy:                     0.0000000000 [K]
	Current Host-Adsorbate energy:           -43105.7369898331 [K]
	Current Host-Cation energy:                   0.0000000000 [K]
	Current Adsorbate-Adsorbate energy:       -9163.4864870775 [K]
	Current Cation-Cation energy:                 0.0000000000 [K]
	Current Adsorbate-Cation energy:              0.0000000000 [K]



[Init] Current cycle: 270 out of 300
========================================================================================================

Net charge: 0 (F: 0, A: 0, C: 0)
Current Box:  17.22000   0.00000   0.00000 [A]
               0.00000  17.04000   0.00000 [A]
               0.00000   0.00000  20.00000 [A]
Box-lengths:  17.22000  17.04000  20.00000 Box-angles:   90.00000  90.00000  90.00000 [degrees]
Volume: 5868.57600 [A^3]

Loadings per component:
----------------------------------------------------------------------------------------------------------------------------------------------------
Component 0 (Ar), current number of integer/fractional/reaction molecules: 38/0/0, density: 429.55328 [kg/m^3]
	absolute adsorption:   1.35714 [mol/uc],        28.2485 [mol/kg],           1128.5290 [mg/g]
	                                               633.1620 [cm^3 STP/g],        241.0010 [cm^3 STP/cm^3]
	excess adsorption:     1.35700 [mol/uc],        28.2455 [mol/kg],           1128.4074 [mg/g]
	                                               633.0938 [cm^3 STP/g],        240.9750 [cm^3 STP/cm^3]
----------------------------------------------------------------------------------------------------------------------------------------------------
Degrees of freedom: 114 0 114 0
Number of Framework-atoms:    112
Number of Adsorbates:          38 (38 integer, 0 fractional, 0 reaction)
Number of Cations:              0 (0 integer, 0 fractional, 0 reaction

Current total potential energy:            -60723.0597183960 [K]
	Current Host-Host energy:                     0.0000000000 [K]
	Current Host-Adsorbate energy:           -44197.7728705225 [K]
	Current Host-Cation energy:                   0.0000000000 [K]
	Current Adsorbate-Adsorbate energy:       -9897.2597034431 [K]
	Current Cation-Cation energy:                 0.0000000000 [K]
	Current Adsorbate-Cation energy:              0.0000000000 [K]



Average Properties at Current cycle: 0 out of 300
========================================================================================

Framework surface area:       0.0000000000 [m^2/g]        0.0000000000 [m^2/cm^3]       0.0000000000 [A^2]
	Framework 0 individual surface area:       0.0000000000 [m^2/g]        0.0000000000 [m^2/cm^3]       0.0000000000 [A^2]
	Cation surface area:                       0.0000000000 [m^2/g]        0.0000000000 [m^2/cm^3]       0.0000000000 [A^2]
Compressibility:       0.0000000000 [-]
Henry coefficients
	Component 0: 0 [mol/kg/Pa] (Rosenbluth factor new: 0 [-])
Energy <U_gh>_1-<U_h>_0 from Widom


Current cycle: 0 out of 300
========================================================================================================

Net charge: 0 (F: 0, A: 0, C: 0)
Current Box:  17.22000   0.00000   0.00000 [A]   Average Box:  17.22000   0.00000   0.00000 [A]
               0.00000  17.04000   0.00000 [A]                  0.00000  17.04000   0.00000 [A]
               0.00000   0.00000  20.00000 [A]                  0.00000   0.00000  20.00000 [A]
Box-lengths:   17.22000  17.04000  20.00000 [A] Average:  17.22000  17.04000  20.00000 [A]
Box-angles:   90.00000  90.00000  90.00000 [degrees] Average:  90.00000  90.00000  90.00000 [degrees]
Volume: 5868.57600 [A^3] Average Volume: 5868.57600 [A^3]

Loadings per component:
----------------------------------------------------------------------------------------------------------------------------------------------------
Component 0 (Ar), current number of integer/fractional/reaction molecules: 39/0/0 (avg.  39.00000), density: 440.85732 (avg. 440.85732) [kg/m^3]
	absolute adsorption:   1.39286 (avg.   1.39286) [mol/uc],  28.9919192885 (avg.  28.9919192885) [mol/kg], 1158.2271755749 (avg. 1158.2271755749) [mg/g]
	                     649.8241758082 (avg. 649.8241758082) [cm^3 STP/g],  247.3430888850 (avg. 247.3430888850) [cm^3 STP/cm^3]
	excess adsorption:     1.3927108575 (avg.   1.3571428571) [mol/uc],  28.9888744004 (avg.  28.2485367426) [mol/kg], 1158.1055322974 (avg. 1128.5290428679) [mg/g]
	                     649.7559277614 (avg. 633.1620174542) [cm^3 STP/g],  247.3171115770 (avg. 241.0009584007) [cm^3 STP/cm^3]
----------------------------------------------------------------------------------------------------------------------------------------------------
Degrees of freedom: 117 0 117 0
Number of Framework-atoms:    112
Number of Adsorbates:          39 (39 integer, 0 fractional, 0 reaction)
Number of Cations:              0 (0 integer, 0 fractional, 0 reaction)

Current total potential energy:            -61785.9296085454 [K]  (avg.      -61785.9296085454)
	Current Host-Host energy:                     0.0000000000 [K]  (avg.           0.0000000000)
	Current Host-Adsorbate energy:           -44973.1351320367 [K]  (avg.      -44973.1351320367)
	Current Host-Cation energy:                   0.0000000000 [K]  (avg.           0.0000000000)
	Current Adsorbate-Adsorbate energy:      -10067.3874856939 [K]  (avg.      -10067.3874856939)
	Current Cation-Cation energy:                 0.0000000000 [K]  (avg.           0.0000000000)
	Current Adsorbate-Cation energy:              0.0000000000 [K]  (avg.           0.0000000000)



Current cycle: 30 out of 300
========================================================================================================

Net charge: 0 (F: 0, A: 0, C: 0)
Current Box:  17.22000   0.00000   0.00000 [A]   Average Box:  17.22000   0.00000   0.00000 [A]
               0.00000  17.04000   0.00000 [A]                  0.00000  17.04000   0.00000 [A]
               0.00000   0.00000  20.00000 [A]                  0.00000   0.00000  20.00000 [A]
Box-lengths:   17.22000  17.04000  20.00000 [A] Average:  17.22000  17.04000  20.00000 [A]
Box-angles:   90.00000  90.00000  90.00000 [degrees] Average:  90.00000  90.00000  90.00000 [degrees]
Volume: 5868.57600 [A^3] Average Volume: 5868.57600 [A^3]

Loadings per component:
----------------------------------------------------------------------------------------------------------------------------------------------------
Component 0 (Ar), current number of integer/fractional/reaction molecules: 38/0/0 (avg.  38.54839), density: 429.55328 (avg. 435.75227) [kg/m^3]
	absolute adsorption:   1.35714 (avg.   1.37673) [mol/uc],  28.2485367426 (avg.  28.6561981387) [mol/kg], 1128.5290428679 (avg. 1144.8151156427) [mg/g]
	                     633.1620174542 (avg. 642.2993301000) [cm^3 STP/g],  241.0009584007 (avg. 244.4789009243) [cm^3 STP/cm^3]
	excess adsorption:     1.3569965718 (avg.   1.3410138249) [mol/uc],  28.2454918546 (avg.  27.9128155929) [mol/kg], 1128.4073995904 (avg. 1115.1169829356) [mg/g]
	                     633.0937694073 (avg. 625.6371717459) [cm^3 STP/g],  240.9749810928 (avg. 238.1367704401) [cm^3 STP/cm^3]
----------------------------------------------------------------------------------------------------------------------------------------------------
Degrees of freedom: 114 0 114 0
Number of Framework-atoms:    112
Number of Adsorbates:          38 (38 integer, 0 fractional, 0 reaction)
Number of Cations:              0 (0 integer, 0 fractional, 0 reaction)

Current total potential energy:            -60914.2442968740 [K]  (avg.      -61215.9912928716)
	Current Host-Host energy:                     0.0000000000 [K]  (avg.           0.0000000000)
	Current Host-Adsorbate energy:           -45049.0321357595 [K]  (avg.      -44868.4658551189)
	Current Host-Cation energy:                   0.0000000000 [K]  (avg.           0.0000000000)
	Current Adsorbate-Adsorbate energy:       -9237.1850166841 [K]  (avg.       -9655.1287001437)
	Current Cation-Cation energy:                 0.0000000000 [K]  (avg.           0.0000000000)
	Current Adsorbate-Cation energy:              0.0000000000 [K]  (avg.           0.0000000000)



Current cycle: 60 out of 300
========================================================================================================

Net charge: 0 (F: 0, A: 0, C: 0)
Current Box:  17.22000   0.00000   0.00000 [A]   Average Box:  17.22000   0.00000   0.00000 [A]
               0.00000  17.04000   0.00000 [A]                  0.00000  17.04000   0.00000 [A]
               0.00000   0.00000  20.00000 [A]                  0.00000   0.00000  20.00000 [A]
Box-lengths:   17.22000  17.04000  20.00000 [A] Average:  17.22000  17.04000  20.00000 [A]
Box-angles:   90.00000  90.00000  90.00000 [degrees] Average:  90.00000  90.00000  90.00000 [degrees]
Volume: 5868.57600 [A^3] Average Volume: 5868.57600 [A^3]

Loadings per component:
----------------------------------------------------------------------------------------------------------------------------------------------------
Component 0 (Ar), current number of integer/fractional/reaction molecules: 40/0/0 (avg.  38.40984), density: 452.16135 (avg. 434.18608) [kg/m^3]
	absolute adsorption:   1.42857 (avg.   1.37178) [mol/uc],  29.7353018343 (avg.  28.5532017204) [mol/kg], 1187.9253082820 (avg. 1140.7004087314) [mg/g]
	                     666.4863341623 (avg. 639.9907708780) [cm^3 STP/g],  253.6852193692 (avg. 243.6001922057) [cm^3 STP/cm^3]
	excess adsorption:     1.4284251432 (avg.   1.3360655738) [mol/uc],  29.7322569463 (avg.  27.8098191746) [mol/kg], 1187.8036650045 (avg. 1111.0022760244) [mg/g]
	                     666.4180861155 (avg. 623.3286125239) [cm^3 STP/g],  253.6592420613 (avg. 237.2580617215) [cm^3 STP/cm^3]
----------------------------------------------------------------------------------------------------------------------------------------------------
Degrees of freedom: 120 0 120 0
Number of Framework-atoms:    112
Number of Adsorbates:          40 (40 integer, 0 fractional, 0 reaction)
Number of Cations:              0 (0 integer, 0 fractional, 0 reaction)

Current total potential energy:            -61700.6597286858 [K]  (avg.      -61287.1033901638)
	Current Host-Host energy:                     0.0000000000 [K]  (avg.           0.0000000000)
	Current Host-Adsorbate energy:           -45250.4611144203 [K]  (avg.      -44828.8191560323)
	Current Host-Cation energy:                   0.0000000000 [K]  (avg.           0.0000000000)
	Current Adsorbate-Adsorbate energy:       -9586.3818124755 [K]  (avg.       -9782.1168259503)
	Current Cation-Cation energy:                 0.0000000000 [K]  (avg.           0.0000000000)
	Current Adsorbate-Cation energy:              0.0000000000 [K]  (avg.           0.0000000000)



Current cycle: 90 out of 300
========================================================================================================

Net charge: 0 (F: 0, A: 0, C: 0)
Current Box:  17.22000   0.00000   0.00000 [A]   Average Box:  17.22000   0.00000   0.00000 [A]
               0.00000  17.04000   0.00000 [A]                  0.00000  17.04000   0.00000 [A]
               0.00000   0.00000  20.00000 [A]                  0.00000   0.00000  20.00000 [A]
Box-lengths:   17.22000  17.04000  20.00000 [A] Average:  17.22000  17.04000  20.00000 [A]
Box-angles:   90.00000  90.00000  90.00000 [degrees] Average:  90.00000  90.00000  90.00000 [degrees]
Volume: 5868.57600 [A^3] Average Volume: 5868.57600 [A^3]

Loadings per component:
----------------------------------------------------------------------------------------------------------------------------------------------------
Component 0 (Ar), current number of integer/fractional/reaction molecules: 39/0/0 (avg.  38.65934), density: 440.85732 (avg. 437.00649) [kg/m^3]
	absolute adsorption:   1.39286 (avg.   1.38069) [mol/uc],  28.9919192885 (avg.  28.7386790806) [mol/kg], 1158.2271755749 (avg. 1148.1102292681) [mg/g]
	                     649.8241758082 (avg. 644.1480559294) [cm^3 STP/g],  247.3430888850 (avg. 245.1825828958) [cm^3 STP/cm^3]
	excess adsorption:     1.3927108575 (avg.   1.3449764521) [mol/uc],  28.9888744004 (avg.  27.9952965347) [mol/kg], 1158.1055322974 (avg. 1118.4120965611) [mg/g]
	                     649.7559277614 (avg. 627.4858975753) [cm^3 STP/g],  247.3171115770 (avg. 238.8404524116) [cm^3 STP/cm^3]
----------------------------------------------------------------------------------------------------------------------------------------------------
Degrees of freedom: 117 0 117 0
Number of Framework-atoms:    112
Number of Adsorbates:          39 (39 integer, 0 fractional, 0 reaction)
Number of Cations:              0 (0 integer, 0 fractional, 0 reaction)

Current total potential energy:            -62790.6900089815 [K]  (avg.      -61747.8013777381)
	Current Host-Host energy:                     0.0000000000 [K]  (avg.           0.0000000000)
	Current Host-Adsorbate energy:           -45701.7044390108 [K]  (avg.      -45062.2187552988)
	Current Host-Cation energy:                   0.0000000000 [K]  (avg.           0.0000000000)
	Current Adsorbate-Adsorbate energy:      -10343.5785791558 [K]  (avg.       -9980.0829446550)
	Current Cation-Cation energy:                 0.0000000000 [K]  (avg.           0.0000000000)
	Current Adsorbate-Cation energy:              0.0000000000 [K]  (avg.           0.0000000000)



Current cycle: 120 out of 300
========================================================================================================

Net charge: 0 (F: 0, A: 0, C: 0)
Current Box:  17.22000   0.00000   0.00000 [A]   Average Box:  17.22000   0.00000   0.00000 [A]
               0.00000  17.04000   0.00000 [A]                  0.00000  17.04000   0.00000 [A]
               0.00000   0.00000  20.00000 [A]                  0.00000   0.00000  20.00000 [A]
Box-lengths:   17.22000  17.04000  20.00000 [A] Average:  17.22000  17.04000  20.00000 [A]
Box-angles:   90.00000  90.00000  90.00000 [degrees] Average:  90.00000  90.00000  90.00000 [degrees]
Volume: 5868.57600 [A^3] Average Volume: 5868.57600 [A^3]

Loadings per component:
----------------------------------------------------------------------------------------------------------------------------------------------------
Component 0 (Ar), current number of integer/fractional/reaction molecules: 39/0/0 (avg.  38.75207), density: 440.85732 (avg. 438.05466) [kg/m^3]
	absolute adsorption:   1.39286 (avg.   1.38400) [mol/uc],  28.9919192885 (avg.  28.8076095664) [mol/kg], 1158.2271755749 (avg. 1150.8640021765) [mg/g]
	                     649.8241758082 (avg. 645.6930621667) [cm^3 STP/g],  247.3430888850 (avg. 245.7706598393) [cm^3 STP/cm^3]
	excess adsorption:     1.3927108575 (avg.   1.3482880756) [mol/uc],  28.9888744004 (avg.  28.0642270205) [mol/kg], 1158.1055322974 (avg. 1121.1658694694) [mg/g]
	                     649.7559277614 (avg. 629.0309038127) [cm^3 STP/g],  247.3171115770 (avg. 239.4285293550) [cm^3 STP/cm^3]
----------------------------------------------------------------------------------------------------------------------------------------------------
Degrees of freedom: 117 0 117 0
Number of Framework-atoms:    112
Number of Adsorbates:          39 (39 integer, 0 fractional, 0 reaction)
Number of Cations:              0 (0 integer, 0 fractional, 0 reaction)

Current total potential energy:            -62515.1262547646 [K]  (avg.      -62025.5722496216)
	Current Host-Host energy:                     0.0000000000 [K]  (avg.           0.0000000000)
	Current Host-Adsorbate energy:           -45561.8981259331 [K]  (avg.      -45157.7004568350)
	Current Host-Cation energy:                   0.0000000000 [K]  (avg.           0.0000000000)
	Current Adsorbate-Adsorbate energy:      -10207.8211380166 [K]  (avg.      -10151.4991463915)
	Current Cation-Cation energy:                 0.0000000000 [K]  (avg.           0.0000000000)
	Current Adsorbate-Cation energy:              0.0000000000 [K]  (avg.           0.0000000000)



Current cycle: 150 out of 300
========================================================================================================

Net charge: 0 (F: 0, A: 0, C: 0)
Current Box:  17.22000   0.00000   0.00000 [A]   Average Box:  17.22000   0.00000   0.00000 [A]
               0.00000  17.04000   0.00000 [A]                  0.00000  17.04000   0.00000 [A]
               0.00000   0.00000  20.00000 [A]                  0.00000   0.00000  20.00000 [A]
Box-lengths:   17.22000  17.04000  20.00000 [A] Average:  17.22000  17.04000  20.00000 [A]
Box-angles:   90.00000  90.00000  90.00000 [degrees] Average:  90.00000  90.00000  90.00000 [degrees]
Volume: 5868.57600 [A^3] Average Volume: 5868.57600 [A^3]

Loadings per component:
----------------------------------------------------------------------------------------------------------------------------------------------------
Component 0 (Ar), current number of integer/fractional/reaction molecules: 40/0/0 (avg.  38.89404), density: 452.16135 (avg. 439.65954) [kg/m^3]
	absolute adsorption:   1.42857 (avg.   1.38907) [mol/uc],  29.7353018343 (avg.  28.9131502770) [mol/kg], 1187.9253082820 (avg. 1155.0803535662) [mg/g]
	                     666.4863341623 (avg. 648.0586490952) [cm^3 STP/g],  253.6852193692 (avg. 246.6710750588) [cm^3 STP/cm^3]
	excess adsorption:     1.4284251432 (avg.   1.3533585620) [mol/uc],  29.7322569463 (avg.  28.1697677311) [mol/kg], 1187.8036650045 (avg. 1125.3822208592) [mg/g]
	                     666.4180861155 (avg. 631.3964907412) [cm^3 STP/g],  253.6592420613 (avg. 240.3289445746) [cm^3 STP/cm^3]
----------------------------------------------------------------------------------------------------------------------------------------------------
Degrees of freedom: 120 0 120 0
Number of Framework-atoms:    112
Number of Adsorbates:          40 (40 integer, 0 fractional, 0 reaction)
Number of Cations:              0 (0 integer, 0 fractional, 0 reaction)

Current total potential energy:            -64698.5223454407 [K]  (avg.      -62316.6695750399)
	Current Host-Host energy:                     0.0000000000 [K]  (avg.           0.0000000000)
	Current Host-Adsorbate energy:           -46678.2894309911 [K]  (avg.      -45315.0041038731)
	Current Host-Cation energy:                   0.0000000000 [K]  (avg.           0.0000000000)
	Current Adsorbate-Adsorbate energy:      -11156.4161126596 [K]  (avg.      -10268.5391979451)
	Current Cation-Cation energy:                 0.0000000000 [K]  (avg.           0.0000000000)
	Current Adsorbate-Cation energy:              0.0000000000 [K]  (avg.           0.0000000000)



Current cycle: 180 out of 300
========================================================================================================

Net charge: 0 (F: 0, A: 0, C: 0)
Current Box:  17.22000   0.00000   0.00000 [A]   Average Box:  17.22000   0.00000   0.00000 [A]
               0.00000  17.04000   0.00000 [A]                  0.00000  17.04000   0.00000 [A]
               0.00000   0.00000  20.00000 [A]                  0.00000   0.00000  20.00000 [A]
Box-lengths:   17.22000  17.04000  20.00000 [A] Average:  17.22000  17.04000  20.00000 [A]
Box-angles:   90.00000  90.00000  90.00000 [degrees] Average:  90.00000  90.00000  90.00000 [degrees]
Volume: 5868.57600 [A^3] Average Volume: 5868.57600 [A^3]

Loadings per component:
----------------------------------------------------------------------------------------------------------------------------------------------------
Component 0 (Ar), current number of integer/fractional/reaction molecules: 39/0/0 (avg.  39.02762), density: 440.85732 (avg. 441.16958) [kg/m^3]
	absolute adsorption:   1.39286 (avg.   1.39384) [mol/uc],  28.9919192885 (avg.  29.0124547179) [mol/kg], 1158.2271755749 (avg. 1159.0475659812) [mg/g]
	                     649.8241758082 (avg. 650.2844564258) [cm^3 STP/g],  247.3430888850 (avg. 247.5182858597) [cm^3 STP/cm^3]
	excess adsorption:     1.3927108575 (avg.   1.3581294396) [mol/uc],  28.9888744004 (avg.  28.2690721721) [mol/kg], 1158.1055322974 (avg. 1129.3494332741) [mg/g]
	                     649.7559277614 (avg. 633.6222980717) [cm^3 STP/g],  247.3171115770 (avg. 241.1761553754) [cm^3 STP/cm^3]
----------------------------------------------------------------------------------------------------------------------------------------------------
Degrees of freedom: 117 0 117 0
Number of Framework-atoms:    112
Number of Adsorbates:          39 (39 integer, 0 fractional, 0 reaction)
Number of Cations:              0 (0 integer, 0 fractional, 0 reaction)

Current total potential energy:            -62394.4902376609 [K]  (avg.      -62574.9152320512)
	Current Host-Host energy:                     0.0000000000 [K]  (avg.           0.0000000000)
	Current Host-Adsorbate energy:           -45871.2717922089 [K]  (avg.      -45474.3314731670)
	Current Host-Cation energy:                   0.0000000000 [K]  (avg.           0.0000000000)
	Current Adsorbate-Adsorbate energy:       -9777.8114546372 [K]  (avg.      -10351.6838527438)
	Current Cation-Cation energy:                 0.0000000000 [K]  (avg.           0.0000000000)
	Current Adsorbate-Cation energy:              0.0000000000 [K]  (avg.           0.0000000000)



Current cycle: 210 out of 300
========================================================================================================

Net charge: 0 (F: 0, A: 0, C: 0)
Current Box:  17.22000   0.00000   0.00000 [A]   Average Box:  17.22000   0.00000   0.00000 [A]
               0.00000  17.04000   0.00000 [A]                  0.00000  17.04000   0.00000 [A]
               0.00000   0.00000  20.00000 [A]                  0.00000   0.00000  20.00000 [A]
Box-lengths:   17.22000  17.04000  20.00000 [A] Average:  17.22000  17.04000  20.00000 [A]
Box-angles:   90.00000  90.00000  90.00000 [degrees] Average:  90.00000  90.00000  90.00000 [degrees]
Volume: 5868.57600 [A^3] Average Volume: 5868.57600 [A^3]

Loadings per component:
----------------------------------------------------------------------------------------------------------------------------------------------------
Component 0 (Ar), current number of integer/fractional/reaction molecules: 40/0/0 (avg.  39.18483), density: 452.16135 (avg. 442.94669) [kg/m^3]
	absolute adsorption:   1.42857 (avg.   1.39946) [mol/uc],  29.7353018343 (avg.  29.1293217496) [mol/kg], 1187.9253082820 (avg. 1163.7164038952) [mg/g]
	                     666.4863341623 (avg. 652.9039112386) [cm^3 STP/g],  253.6852193692 (avg. 248.5153310124) [cm^3 STP/cm^3]
	excess adsorption:     1.4284251432 (avg.   1.3637440758) [mol/uc],  29.7322569463 (avg.  28.3859392037) [mol/kg], 1187.8036650045 (avg. 1134.0182711881) [mg/g]
	                     666.4180861155 (avg. 636.2417528845) [cm^3 STP/g],  253.6592420613 (avg. 242.1732005281) [cm^3 STP/cm^3]
----------------------------------------------------------------------------------------------------------------------------------------------------
Degrees of freedom: 120 0 120 0
Number of Framework-atoms:    112
Number of Adsorbates:          40 (40 integer, 0 fractional, 0 reaction)
Number of Cations:              0 (0 integer, 0 fractional, 0 reaction)

Current total potential energy:            -62968.5483011968 [K]  (avg.      -62760.8102772152)
	Current Host-Host energy:                     0.0000000000 [K]  (avg.           0.0000000000)
	Current Host-Adsorbate energy:           -45479.7780335157 [K]  (avg.      -45603.9519340446)
	Current Host-Cation energy:                   0.0000000000 [K]  (avg.           0.0000000000)
	Current Adsorbate-Adsorbate energy:      -10624.9534658912 [K]  (avg.      -10389.3552807659)
	Current Cation-Cation energy:                 0.0000000000 [K]  (avg.           0.0000000000)
	Current Adsorbate-Cation energy:              0.0000000000 [K]  (avg.           0.0000000000)



Current cycle: 240 out of 300
========================================================================================================

Net charge: 0 (F: 0, A: 0, C: 0)
Current Box:  17.22000   0.00000   0.00000 [A]   Average Box:  17.22000   0.00000   0.00000 [A]
               0.00000  17.04000   0.00000 [A]                  0.00000  17.04000   0.00000 [A]
               0.00000   0.00000  20.00000 [A]                  0.00000   0.00000  20.00000 [A]
Box-lengths:   17.22000  17.04000  20.00000 [A] Average:  17.22000  17.04000  20.00000 [A]
Box-angles:   90.00000  90.00000  90.00000 [degrees] Average:  90.00000  90.00000  90.00000 [degrees]
Volume: 5868.57600 [A^3] Average Volume: 5868.57600 [A^3]

Loadings per component:
----------------------------------------------------------------------------------------------------------------------------------------------------
Component 0 (Ar), current number of integer/fractional/reaction molecules: 39/0/0 (avg.  39.21577), density: 440.85732 (avg. 443.29636) [kg/m^3]
	absolute adsorption:   1.39286 (avg.   1.40056) [mol/uc],  28.9919192885 (avg.  29.1523171822) [mol/kg], 1158.2271755749 (avg. 1164.6350714287) [mg/g]
	                     649.8241758082 (avg. 653.4193303079) [cm^3 STP/g],  247.3430888850 (avg. 248.7115153795) [cm^3 STP/cm^3]
	excess adsorption:     1.3927108575 (avg.   1.3648488441) [mol/uc],  28.9888744004 (avg.  28.4089346363) [mol/kg], 1158.1055322974 (avg. 1134.9369387217) [mg/g]
	                     649.7559277614 (avg. 636.7571719538) [cm^3 STP/g],  247.3171115770 (avg. 242.3693848952) [cm^3 STP/cm^3]
----------------------------------------------------------------------------------------------------------------------------------------------------
Degrees of freedom: 117 0 117 0
Number of Framework-atoms:    112
Number of Adsorbates:          39 (39 integer, 0 fractional, 0 reaction)
Number of Cations:              0 (0 integer, 0 fractional, 0 reaction)

Current total potential energy:            -62256.3326109939 [K]  (avg.      -62755.4770071559)
	Current Host-Host energy:                     0.0000000000 [K]  (avg.           0.0000000000)
	Current Host-Adsorbate energy:           -45425.7255214485 [K]  (avg.      -45589.5592227630)
	Current Host-Cation energy:                   0.0000000000 [K]  (avg.           0.0000000000)
	Current Adsorbate-Adsorbate energy:      -10085.2000987305 [K]  (avg.      -10394.7780191045)
	Current Cation-Cation energy:                 0.0000000000 [K]  (avg.           0.0000000000)
	Current Adsorbate-Cation energy:              0.0000000000 [K]  (avg.           0.0000000000)



Current cycle: 270 out of 300
========================================================================================================

Net charge: 0 (F: 0, A: 0, C: 0)
Current Box:  17.22000   0.00000   0.00000 [A]   Average Box:  17.22000   0.00000   0.00000 [A]
               0.00000  17.04000   0.00000 [A]                  0.00000  17.04000   0.00000 [A]
               0.00000   0.00000  20.00000 [A]                  0.00000   0.00000  20.00000 [A]
Box-lengths:   17.22000  17.04000  20.00000 [A] Average:  17.22000  17.04000  20.00000 [A]
Box-angles:   90.00000  90.00000  90.00000 [degrees] Average:  90.00000  90.00000  90.00000 [degrees]
Volume: 5868.57600 [A^3] Average Volume: 5868.57600 [A^3]

Loadings per component:
----------------------------------------------------------------------------------------------------------------------------------------------------
Component 0 (Ar), current number of integer/fractional/reaction molecules: 39/0/0 (avg.  39.21771), density: 440.85732 (avg. 443.31834) [kg/m^3]
	absolute adsorption:   1.39286 (avg.   1.40063) [mol/uc],  28.9919192885 (avg.  29.1537627210) [mol/kg], 1158.2271755749 (avg. 1164.6928207030) [mg/g]
	                     649.8241758082 (avg. 653.4517305790) [cm^3 STP/g],  247.3430888850 (avg. 248.7238479203) [cm^3 STP/cm^3]
	excess adsorption:     1.3927108575 (avg.   1.3649182920) [mol/uc],  28.9888744004 (avg.  28.4103801751) [mol/kg], 1158.1055322974 (avg. 1134.9946879960) [mg/g]
	                     649.7559277614 (avg. 636.7895722250) [cm^3 STP/g],  247.3171115770 (avg. 242.3817174360) [cm^3 STP/cm^3]
----------------------------------------------------------------------------------------------------------------------------------------------------
Degrees of freedom: 117 0 117 0
Number of Framework-atoms:    112
Number of Adsorbates:          39 (39 integer, 0 fractional, 0 reaction)
Number of Cations:              0 (0 integer, 0 fractional, 0 reaction)

Current total potential energy:            -62362.3985210916 [K]  (avg.      -62710.1756014978)
	Current Host-Host energy:                     0.0000000000 [K]  (avg.           0.0000000000)
	Current Host-Adsorbate energy:           -45461.4734748305 [K]  (avg.      -45528.4074289258)
	Current Host-Cation energy:                   0.0000000000 [K]  (avg.           0.0000000000)
	Current Adsorbate-Adsorbate energy:      -10155.5180554461 [K]  (avg.      -10410.4184979012)
	Current Cation-Cation energy:                 0.0000000000 [K]  (avg.           0.0000000000)
	Current Adsorbate-Cation energy:              0.0000000000 [K]  (avg.           0.0000000000)



+++++++++++++++++++++++++++++++++++++++++++++++++++++++++++++++++++++++++
Finishing simulation
+++++++++++++++++++++++++++++++++++++++++++++++++++++++++++++++++++++++++




Current (running energy) Energy Status
===========================================================================

Internal energy:
Host stretch energy:                                            0.00000000
Host UreyBradley energy:                                        0.00000000
Host bend energy:                                               0.00000000
Host inversion-bend energy:                                     0.00000000
Host torsion energy:                                            0.00000000
Host improper torsion energy:                                   0.00000000
Host out-of-plane energy:                                       0.00000000
Host stretch/stretch energy:                                    0.00000000
Host bend/bend energy:                                          0.00000000
Host stretch/bend energy:                                       0.00000000
Host stretch/torsion energy:                                    0.00000000
Host bend/torsion energy:                                       0.00000000

Adsorbate stretch energy:                                       0.00000000
Adsorbate UreyBradley energy:                                   0.00000000
Adsorbate bend energy:                                          0.00000000
Adsorbate inversion-bend energy:                                0.00000000
Adsorbate torsion energy:                                       0.00000000
Adsorbate improper torsion energy:                              0.00000000
Adsorbate out-of-plane energy:                                  0.00000000
Adsorbate stretch/stretch energy:                               0.00000000
Adsorbate bend/bend energy:                                     0.00000000
Adsorbate stretch/bend energy:                                  0.00000000
Adsorbate stretch/torsion energy:                               0.00000000
Adsorbate bend/torsion energy:                                  0.00000000
[...]
	Block[ 1]            0.00000 [K]
	Block[ 2]            0.00000 [K]
	Block[ 3]            0.00000 [K]
	Block[ 4]            0.00000 [K]
	------------------------------------------------------------------------------
	Average              0.00000 [K] +/-            0.00000 [K]

Average Cation Bend angle inversion energy:
===========================================
	Block[ 0]            0.00000 [K]
	Block[ 1]            0.00000 [K]
	Block[ 2]            0.00000 [K]
	Block[ 3]            0.00000 [K]
	Block[ 4]            0.00000 [K]
	------------------------------------------------------------------------------
	Average              0.00000 [K] +/-            0.00000 [K]

Average Cation Torsion energy:
==============================
	Block[ 0]            0.00000 [K]
	Block[ 1]            0.00000 [K]
	Block[ 2]            0.00000 [K]
	Block[ 3]            0.00000 [K]
	Block[ 4]            0.00000 [K]
	------------------------------------------------------------------------------
	Average              0.00000 [K] +/-            0.00000 [K]

Average Cation Improper Torsion energy:
=======================================
	Block[ 0]            0.00000 [K]
	Block[ 1]            0.00000 [K]
	Block[ 2]            0.00000 [K]
	Block[ 3]            0.00000 [K]
	Block[ 4]            0.00000 [K]
	------------------------------------------------------------------------------
	Average              0.00000 [K] +/-            0.00000 [K]

Average Cation Bond-Bond cross term energy:
=================================================
	Block[ 0]            0.00000 [K]
	Block[ 1]            0.00000 [K]
	Block[ 2]            0.00000 [K]
	Block[ 3]            0.00000 [K]
	Block[ 4]            0.00000 [K]
	------------------------------------------------------------------------------
	Average              0.00000 [K] +/-            0.00000 [K]

Average Cation Bend-Bend cross term energy:
===========================================
	Block[ 0]            0.00000 [K]
	Block[ 1]            0.00000 [K]
	Block[ 2]            0.00000 [K]
	Block[ 3]            0.00000 [K]
	Block[ 4]            0.00000 [K]
	------------------------------------------------------------------------------
	Average              0.00000 [K] +/-            0.00000 [K]

Average Cation Bond-Bend cross term energy:
==============================================
	Block[ 0]            0.00000 [K]
	Block[ 1]            0.00000 [K]
	Block[ 2]            0.00000 [K]
	Block[ 3]            0.00000 [K]
	Block[ 4]            0.00000 [K]
	------------------------------------------------------------------------------
	Average              0.00000 [K] +/-            0.00000 [K]

Average Cation Bond-Torsion cross term energy:
==============================================
	Block[ 0]            0.00000 [K]
	Block[ 1]            0.00000 [K]
	Block[ 2]            0.00000 [K]
	Block[ 3]            0.00000 [K]
	Block[ 4]            0.00000 [K]
	------------------------------------------------------------------------------
	Average              0.00000 [K] +/-            0.00000 [K]

Average Cation Bend-Torsion cross term energy:
==============================================
	Block[ 0]            0.00000 [K]
	Block[ 1]            0.00000 [K]
	Block[ 2]            0.00000 [K]
	Block[ 3]            0.00000 [K]
	Block[ 4]            0.00000 [K]
	------------------------------------------------------------------------------
	Average              0.00000 [K] +/-            0.00000 [K]

Average Cation Intra Van der Waals energy:
==========================================
	Block[ 0]            0.00000 [K]
	Block[ 1]            0.00000 [K]
	Block[ 2]            0.00000 [K]
	Block[ 3]            0.00000 [K]
	Block[ 4]            0.00000 [K]
	------------------------------------------------------------------------------
	Average              0.00000 [K] +/-            0.00000 [K]

Average Cation Intra charge-charge Coulomb energy:
====================================
	Block[ 0]            0.00000 [K]
	Block[ 1]            0.00000 [K]
	Block[ 2]            0.00000 [K]
	Block[ 3]            0.00000 [K]
	Block[ 4]            0.00000 [K]
	------------------------------------------------------------------------------
	Average              0.00000 [K] +/-            0.00000 [K]

Average Cation Intra charge-bonddipole Coulomb energy:
====================================
	Block[ 0]            0.00000 [K]
	Block[ 1]            0.00000 [K]
	Block[ 2]            0.00000 [K]
	Block[ 3]            0.00000 [K]
	Block[ 4]            0.00000 [K]
	------------------------------------------------------------------------------
	Average              0.00000 [K] +/-            0.00000 [K]

Average Cation Intra bonddipole-bonddipole Coulomb energy:
====================================
	Block[ 0]            0.00000 [K]
	Block[ 1]            0.00000 [K]
	Block[ 2]            0.00000 [K]
	Block[ 3]            0.00000 [K]
	Block[ 4]            0.00000 [K]
	------------------------------------------------------------------------------
	Average              0.00000 [K] +/-            0.00000 [K]

Average Host-Host energy:
=========================
	Block[ 0] 0.00000            Van der Waals: 0.00000            Coulomb: 0.00000            [K]
	Block[ 1] 0.00000            Van der Waals: 0.00000            Coulomb: 0.00000            [K]
	Block[ 2] 0.00000            Van der Waals: 0.00000            Coulomb: 0.00000            [K]
	Block[ 3] 0.00000            Van der Waals: 0.00000            Coulomb: 0.00000            [K]
	Block[ 4] 0.00000            Van der Waals: 0.00000            Coulomb: 0.00000            [K]
	------------------------------------------------------------------------------
	Average   0.00000            Van der Waals: 0.000000           Coulomb: 0.00000            [K]
	      +/- 0.00000                       +/- 0.000000                +/- 0.00000            [K]

Average Adsorbate-Adsorbate energy:
===================================
	Block[ 0] -9785.37908        Van der Waals: -9785.37908        Coulomb: 0.00000            [K]
	Block[ 1] -10516.68052       Van der Waals: -10516.68052       Coulomb: 0.00000            [K]
	Block[ 2] -10762.55651       Van der Waals: -10762.55651       Coulomb: 0.00000            [K]
	Block[ 3] -10519.65561       Van der Waals: -10519.65561       Coulomb: 0.00000            [K]
	Block[ 4] -10345.02137       Van der Waals: -10345.02137       Coulomb: 0.00000            [K]
	------------------------------------------------------------------------------
	Average   -10385.85862       Van der Waals: -10385.858616      Coulomb: 0.00000            [K]
	      +/- 656.75607                     +/- 656.756066              +/- 0.00000            [K]

Average Cation-Cation energy:
=============================
	Block[ 0] 0.00000            Van der Waals: 0.00000            Coulomb: 0.00000            [K]
	Block[ 1] 0.00000            Van der Waals: 0.00000            Coulomb: 0.00000            [K]
	Block[ 2] 0.00000            Van der Waals: 0.00000            Coulomb: 0.00000            [K]
	Block[ 3] 0.00000            Van der Waals: 0.00000            Coulomb: 0.00000            [K]
	Block[ 4] 0.00000            Van der Waals: 0.00000            Coulomb: 0.00000            [K]
	------------------------------------------------------------------------------
	Average   0.00000            Van der Waals: 0.000000           Coulomb: 0.00000            [K]
	      +/- 0.00000                       +/- 0.000000                +/- 0.00000            [K]

Average Host-Adsorbate energy:
==============================
	Block[ 0] -44821.79179       Van der Waals: -44821.79179       Coulomb: 0.00000            [K]
	Block[ 1] -45486.87250       Van der Waals: -45486.87250       Coulomb: 0.00000            [K]
	Block[ 2] -46107.71446       Van der Waals: -46107.71446       Coulomb: 0.00000            [K]
	Block[ 3] -45944.58871       Van der Waals: -45944.58871       Coulomb: 0.00000            [K]
	Block[ 4] -45179.23785       Van der Waals: -45179.23785       Coulomb: 0.00000            [K]
	------------------------------------------------------------------------------
	Average   -45508.04106       Van der Waals: -45508.041061      Coulomb: 0.00000            [K]
	      +/- 950.65441                     +/- 950.654407              +/- 0.00000            [K]

Average Host-Cation energy:
===========================
	Block[ 0] 0.00000            Van der Waals: 0.00000            Coulomb: 0.00000            [K]
	Block[ 1] 0.00000            Van der Waals: 0.00000            Coulomb: 0.00000            [K]
	Block[ 2] 0.00000            Van der Waals: 0.00000            Coulomb: 0.00000            [K]
	Block[ 3] 0.00000            Van der Waals: 0.00000            Coulomb: 0.00000            [K]
	Block[ 4] 0.00000            Van der Waals: 0.00000            Coulomb: 0.00000            [K]
	------------------------------------------------------------------------------
	Average   0.00000            Van der Waals: 0.000000           Coulomb: 0.00000            [K]
	      +/- 0.00000                       +/- 0.000000                +/- 0.00000            [K]

Average Adsorbate-Cation energy:
================================
	Block[ 0] 0.00000            Van der Waals: 0.00000            Coulomb: 0.00000            [K]
	Block[ 1] 0.00000            Van der Waals: 0.00000            Coulomb: 0.00000            [K]
	Block[ 2] 0.00000            Van der Waals: 0.00000            Coulomb: 0.00000            [K]
	Block[ 3] 0.00000            Van der Waals: 0.00000            Coulomb: 0.00000            [K]
	Block[ 4] 0.00000            Van der Waals: 0.00000            Coulomb: 0.00000            [K]
	------------------------------------------------------------------------------
	Average   0.00000            Van der Waals: 0.000000           Coulomb: 0.00000            [K]
	      +/- 0.00000                       +/- 0.000000                +/- 0.00000            [K]

Host polarization energy:
=======================
	Block[ 0]            0.00000 [K]
	Block[ 1]            0.00000 [K]
	Block[ 2]            0.00000 [K]
	Block[ 3]            0.00000 [K]
	Block[ 4]            0.00000 [K]
	------------------------------------------------------------------------------
	Average              0.00000 [K] +/-            0.00000 [K]

Adsorbate polarization energy:
=======================
	Block[ 0]            0.00000 [K]
	Block[ 1]            0.00000 [K]
	Block[ 2]            0.00000 [K]
	Block[ 3]            0.00000 [K]
	Block[ 4]            0.00000 [K]
	------------------------------------------------------------------------------
	Average              0.00000 [K] +/-            0.00000 [K]

Cation polarization energy:
=======================
	Block[ 0]            0.00000 [K]
	Block[ 1]            0.00000 [K]
	Block[ 2]            0.00000 [K]
	Block[ 3]            0.00000 [K]
	Block[ 4]            0.00000 [K]
	------------------------------------------------------------------------------
	Average              0.00000 [K] +/-            0.00000 [K]

Host back-polarization energy:
=======================
	Block[ 0]            0.00000 [K]
	Block[ 1]            0.00000 [K]
	Block[ 2]            0.00000 [K]
	Block[ 3]            0.00000 [K]
	Block[ 4]            0.00000 [K]
	------------------------------------------------------------------------------
	Average              0.00000 [K] +/-            0.00000 [K]

Adsorbate back-polarization energy:
=======================
	Block[ 0]            0.00000 [K]
	Block[ 1]            0.00000 [K]
	Block[ 2]            0.00000 [K]
	Block[ 3]            0.00000 [K]
	Block[ 4]            0.00000 [K]
	------------------------------------------------------------------------------
	Average              0.00000 [K] +/-            0.00000 [K]

Cation back-polarization energy:
=======================
	Block[ 0]            0.00000 [K]
	Block[ 1]            0.00000 [K]
	Block[ 2]            0.00000 [K]
	Block[ 3]            0.00000 [K]
	Block[ 4]            0.00000 [K]
	------------------------------------------------------------------------------
	Average              0.00000 [K] +/-            0.00000 [K]

Tail-correction energy:
=======================
	Block[ 0]        -6673.03992 [K]
	Block[ 1]        -6759.22147 [K]
	Block[ 2]        -6814.49655 [K]
	Block[ 3]        -6838.23001 [K]
	Block[ 4]        -6763.16846 [K]
	------------------------------------------------------------------------------
	Average          -6769.63128 [K] +/-          113.83743 [K]

Distance-constraints energy:
=======================
	Block[ 0]            0.00000 [K]
	Block[ 1]            0.00000 [K]
	Block[ 2]            0.00000 [K]
	Block[ 3]            0.00000 [K]
	Block[ 4]            0.00000 [K]
	------------------------------------------------------------------------------
	Average              0.00000 [K] +/-            0.00000 [K]

Angle-constraints energy:
=======================
	Block[ 0]            0.00000 [K]
	Block[ 1]            0.00000 [K]
	Block[ 2]            0.00000 [K]
	Block[ 3]            0.00000 [K]
	Block[ 4]            0.00000 [K]
	------------------------------------------------------------------------------
	Average              0.00000 [K] +/-            0.00000 [K]

Dihedral-constraints energy:
=======================
	Block[ 0]            0.00000 [K]
	Block[ 1]            0.00000 [K]
	Block[ 2]            0.00000 [K]
	Block[ 3]            0.00000 [K]
	Block[ 4]            0.00000 [K]
	------------------------------------------------------------------------------
	Average              0.00000 [K] +/-            0.00000 [K]

Inversion-bend constraints energy:
=======================
	Block[ 0]            0.00000 [K]
	Block[ 1]            0.00000 [K]
	Block[ 2]            0.00000 [K]
	Block[ 3]            0.00000 [K]
	Block[ 4]            0.00000 [K]
	------------------------------------------------------------------------------
	Average              0.00000 [K] +/-            0.00000 [K]

Out-of-plane-distance constraints energy:
=======================
	Block[ 0]            0.00000 [K]
	Block[ 1]            0.00000 [K]
	Block[ 2]            0.00000 [K]
	Block[ 3]            0.00000 [K]
	Block[ 4]            0.00000 [K]
	------------------------------------------------------------------------------
	Average              0.00000 [K] +/-            0.00000 [K]

Exclusion-constraints energy:
=======================
	Block[ 0]            0.00000 [K]
	Block[ 1]            0.00000 [K]
	Block[ 2]            0.00000 [K]
	Block[ 3]            0.00000 [K]
	Block[ 4]            0.00000 [K]
	------------------------------------------------------------------------------
	Average              0.00000 [K] +/-            0.00000 [K]

Total energy:
=============
	Block[ 0]       -61280.21078 [K]
	Block[ 1]       -62762.77448 [K]
	Block[ 2]       -63684.76751 [K]
	Block[ 3]       -63302.47432 [K]
	Block[ 4]       -62287.42769 [K]
	------------------------------------------------------------------------------
	Average         -62663.53096 [K] +/-         1677.15244 [K]

Number of molecules:
====================

Component 0 [Ar]
-------------------------------------------------------------
	Block[ 0] 38.38333           [-]
	Block[ 1] 39.11667           [-]
	Block[ 2] 39.58333           [-]
	Block[ 3] 39.78333           [-]
	Block[ 4] 39.15000           [-]
	------------------------------------------------------------------------------
	Average                                     39.2033333333 +/-       0.9648028008 [-]
	Average loading absolute [molecules/unit cell]        1.4001190476 +/-       0.0344572429 [-]
	Average loading absolute [mol/kg framework]         29.1430737395 +/-       0.7172175623 [-]
	Average loading absolute [milligram/gram framework]       1164.2657958920 +/-      28.6528416145 [-]
	Average loading absolute [cm^3 (STP)/gr framework]        653.2121480069 +/-      16.0756970475 [-]
	Average loading absolute [cm^3 (STP)/cm^3 framework]        248.6326554167 +/-       6.1189052543 [-]

	Block[ 0] 38.38333           [-]
	Block[ 1] 39.11667           [-]
	Block[ 2] 39.58333           [-]
	Block[ 3] 39.78333           [-]
	Block[ 4] 39.15000           [-]
	------------------------------------------------------------------------------
	Average                                     38.2033333333 +/-       0.9648028008 [-]
	Average loading excess [molecules/unit cell]        1.3644047619 +/-       0.0344572429 [-]
	Average loading excess [mol/kg framework]         28.3996911936 +/-       0.7172175623 [-]
	Average loading excess [milligram/gram framework]       1134.5676631850 +/-      28.6528416145 [-]
	Average loading excess [cm^3 (STP)/gr framework]        636.5499896528 +/-      16.0756970475 [-]
	Average loading excess [cm^3 (STP)/cm^3 framework]        242.2905249325 +/-       6.1189052543 [-]


Average Widom Rosenbluth factor:
================================
	Block[ 0] 0 [-]
	Block[ 1] 0 [-]
	Block[ 2] 0 [-]
	Block[ 3] 0 [-]
	Block[ 4] 0 [-]
	------------------------------------------------------------------------------
	[Ar] Average Widom Rosenbluth-weight:   0 +/- 0.000000 [-]

Average Widom chemical potential:
=================================
	Block[ 0] 0 [-]
	Block[ 1] 0 [-]
	Block[ 2] 0 [-]
	Block[ 3] 0 [-]
	Block[ 4] 0 [-]
	------------------------------------------------------------------------------
	[Ar] Average chemical potential:   0 +/- 0.000000 [K]

Average Widom Ideal-gas contribution:
=====================================
	Block[ 0] 0 [-]
	Block[ 1] 0 [-]
	Block[ 2] 0 [-]
	Block[ 3] 0 [-]
	Block[ 4] 0 [-]
	------------------------------------------------------------------------------
	[Ar] Average Widom Ideal-gas chemical potential:   0 +/- 0.000000 [-]

Average Widom excess contribution:
==================================
	Block[ 0] 0 [-]
	Block[ 1] 0 [-]
	Block[ 2] 0 [-]
	Block[ 3] 0 [-]
	Block[ 4] 0 [-]
	------------------------------------------------------------------------------
	[Ar] Average Widom excess chemical potential:   0 +/- 0.000000 [-]

Average Gibbs Widom Rosenbluth factor:
======================================
	Block[ 0] 0 [-]
	Block[ 1] 0 [-]
	Block[ 2] 0 [-]
	Block[ 3] 0 [-]
	Block[ 4] 0 [-]
	------------------------------------------------------------------------------
	[Ar] Average Gibbs Widom Rosenbluth-weight:   0 +/- 0.000000 [-]

Average Gibbs Widom chemical potential:
=======================================
	Block[ 0] 0 [-]
	Block[ 1] 0 [-]
	Block[ 2] 0 [-]
	Block[ 3] 0 [-]
	Block[ 4] 0 [-]
	------------------------------------------------------------------------------
	[Ar] Average Gibbs chemical potential:   0 +/- 0.000000 [K]

Average Gibbs Widom Ideal-gas contribution:
===========================================
	Block[ 0] 0 [-]
	Block[ 1] 0 [-]
	Block[ 2] 0 [-]
	Block[ 3] 0 [-]
	Block[ 4] 0 [-]
	------------------------------------------------------------------------------
	[Ar] Average Gibbs Ideal-gas chemical potential:   0 +/- 0.000000 [-]

Average Gibbs Widom excess contribution:
===========================================
	Block[ 0] 0 [-]
	Block[ 1] 0 [-]
	Block[ 2] 0 [-]
	Block[ 3] 0 [-]
	Block[ 4] 0 [-]
	------------------------------------------------------------------------------
	[Ar] Average Gibbs excess chemical potential:   0 +/- 0.000000 [-]

Average Henry coefficient:
==========================
	Block[ 0] 0 [mol/kg/Pa]
	Block[ 1] 0 [mol/kg/Pa]
	Block[ 2] 0 [mol/kg/Pa]
	Block[ 3] 0 [mol/kg/Pa]
	Block[ 4] 0 [mol/kg/Pa]
	------------------------------------------------------------------------------
	[Ar] Average Henry coefficient:  0 +/- 0 [mol/kg/Pa]

Average adsorption energy <U_gh>_1-<U_h>_0 obtained from Widom-insertion:
(Note: the total heat of adsorption is dH=<U_gh>_1-<U_h>_0 - <U_g> - RT)
=========================================================================

Simulation finished,  0 warnings


Fri Nov 13 18:38:16 2020
Simulation finished on Friday, November 13.
The end time was 06:38 PM.

