# vtk DataFile Version 1.0
Cube
ASCII

DATASET POLYDATA
POINTS 240 float
0.000000 0.710014 0.000000
0.000000 0.710014 20.000000
17.220000 0.710014 0.000000
17.220000 0.710014 20.000000
1.230000 2.840014 0.000000
1.230000 2.840014 20.000000
0.000000 3.549986 0.000000
0.000000 3.549986 20.000000
17.220000 3.549986 0.000000
17.220000 3.549986 20.000000
1.230000 1.419986 0.000000
1.230000 1.419986 20.000000
0.000000 4.970014 0.000000
0.000000 4.970014 20.000000
17.220000 4.970014 0.000000
17.220000 4.970014 20.000000
1.230000 7.100014 0.000000
1.230000 7.100014 20.000000
0.000000 7.809986 0.000000
0.000000 7.809986 20.000000
17.220000 7.809986 0.000000
17.220000 7.809986 20.000000
1.230000 5.679986 0.000000
1.230000 5.679986 20.000000
0.000000 9.230014 0.000000
0.000000 9.230014 20.000000
17.220000 9.230014 0.000000
17.220000 9.230014 20.000000
1.230000 11.360014 0.000000
1.230000 11.360014 20.000000
0.000000 12.069986 0.000000
0.000000 12.069986 20.000000
17.220000 12.069986 0.000000
17.220000 12.069986 20.000000
1.230000 9.939986 0.000000
1.230000 9.939986 20.000000
0.000000 13.490014 0.000000
0.000000 13.490014 20.000000
17.220000 13.490014 0.000000
17.220000 13.490014 20.000000
1.230000 15.620014 0.000000
1.230000 15.620014 20.000000
0.000000 16.329986 0.000000
0.000000 16.329986 20.000000
17.220000 16.329986 0.000000
17.220000 16.329986 20.000000
1.230000 14.199986 0.000000
1.230000 14.199986 20.000000
2.460000 0.710014 0.000000
2.460000 0.710014 20.000000
3.690000 2.840014 0.000000
3.690000 2.840014 20.000000
2.460000 3.549986 0.000000
2.460000 3.549986 20.000000
3.690000 1.419986 0.000000
3.690000 1.419986 20.000000
2.460000 4.970014 0.000000
2.460000 4.970014 20.000000
3.690000 7.100014 0.000000
3.690000 7.100014 20.000000
2.460000 7.809986 0.000000
2.460000 7.809986 20.000000
3.690000 5.679986 0.000000
3.690000 5.679986 20.000000
2.460000 9.230014 0.000000
2.460000 9.230014 20.000000
3.690000 11.360014 0.000000
3.690000 11.360014 20.000000
2.460000 12.069986 0.000000
2.460000 12.069986 20.000000
3.690000 9.939986 0.000000
3.690000 9.939986 20.000000
2.460000 13.490014 0.000000
2.460000 13.490014 20.000000
3.690000 15.620014 0.000000
3.690000 15.620014 20.000000
2.460000 16.329986 0.000000
2.460000 16.329986 20.000000
3.690000 14.199986 0.000000
3.690000 14.199986 20.000000
4.920000 0.710014 0.000000
4.920000 0.710014 20.000000
6.150000 2.840014 0.000000
6.150000 2.840014 20.000000
4.920000 3.549986 0.000000
4.920000 3.549986 20.000000
6.150000 1.419986 0.000000
6.150000 1.419986 20.000000
4.920000 4.970014 0.000000
4.920000 4.970014 20.000000
6.150000 7.100014 0.000000
6.150000 7.100014 20.000000
4.920000 7.809986 0.000000
4.920000 7.809986 20.000000
6.150000 5.679986 0.000000
6.150000 5.679986 20.000000
4.920000 9.230014 0.000000
4.920000 9.230014 20.000000
6.150000 11.360014 0.000000
6.150000 11.360014 20.000000
4.920000 12.069986 0.000000
4.920000 12.069986 20.000000
6.150000 9.939986 0.000000
6.150000 9.939986 20.000000
4.920000 13.490014 0.000000
4.920000 13.490014 20.000000
6.150000 15.620014 0.000000
6.150000 15.620014 20.000000
4.920000 16.329986 0.000000
4.920000 16.329986 20.000000
6.150000 14.199986 0.000000
6.150000 14.199986 20.000000
7.380000 0.710014 0.000000
7.380000 0.710014 20.000000
8.610000 2.840014 0.000000
8.610000 2.840014 20.000000
7.380000 3.549986 0.000000
7.380000 3.549986 20.000000
8.610000 1.419986 0.000000
8.610000 1.419986 20.000000
7.380000 4.970014 0.000000
7.380000 4.970014 20.000000
8.610000 7.100014 0.000000
8.610000 7.100014 20.000000
7.380000 7.809986 0.000000
7.380000 7.809986 20.000000
8.610000 5.679986 0.000000
8.610000 5.679986 20.000000
7.380000 9.230014 0.000000
7.380000 9.230014 20.000000
8.610000 11.360014 0.000000
8.610000 11.360014 20.000000
7.380000 12.069986 0.000000
7.380000 12.069986 20.000000
8.610000 9.939986 0.000000
8.610000 9.939986 20.000000
7.380000 13.490014 0.000000
7.380000 13.490014 20.000000
8.610000 15.620014 0.000000
8.610000 15.620014 20.000000
7.380000 16.329986 0.000000
7.380000 16.329986 20.000000
8.610000 14.199986 0.000000
8.610000 14.199986 20.000000
9.840000 0.710014 0.000000
9.840000 0.710014 20.000000
11.070000 2.840014 0.000000
11.070000 2.840014 20.000000
9.840000 3.549986 0.000000
9.840000 3.549986 20.000000
11.070000 1.419986 0.000000
11.070000 1.419986 20.000000
9.840000 4.970014 0.000000
9.840000 4.970014 20.000000
11.070000 7.100014 0.000000
11.070000 7.100014 20.000000
9.840000 7.809986 0.000000
9.840000 7.809986 20.000000
11.070000 5.679986 0.000000
11.070000 5.679986 20.000000
9.840000 9.230014 0.000000
9.840000 9.230014 20.000000
11.070000 11.360014 0.000000
11.070000 11.360014 20.000000
9.840000 12.069986 0.000000
9.840000 12.069986 20.000000
11.070000 9.939986 0.000000
11.070000 9.939986 20.000000
9.840000 13.490014 0.000000
9.840000 13.490014 20.000000
11.070000 15.620014 0.000000
11.070000 15.620014 20.000000
9.840000 16.329986 0.000000
9.840000 16.329986 20.000000
11.070000 14.199986 0.000000
11.070000 14.199986 20.000000
12.300000 0.710014 0.000000
12.300000 0.710014 20.000000
13.530000 2.840014 0.000000
13.530000 2.840014 20.000000
12.300000 3.549986 0.000000
12.300000 3.549986 20.000000
13.530000 1.419986 0.000000
13.530000 1.419986 20.000000
12.300000 4.970014 0.000000
12.300000 4.970014 20.000000
13.530000 7.100014 0.000000
13.530000 7.100014 20.000000
12.300000 7.809986 0.000000
12.300000 7.809986 20.000000
13.530000 5.679986 0.000000
13.530000 5.679986 20.000000
12.300000 9.230014 0.000000
12.300000 9.230014 20.000000
13.530000 11.360014 0.000000
13.530000 11.360014 20.000000
12.300000 12.069986 0.000000
12.300000 12.069986 20.000000
13.530000 9.939986 0.000000
13.530000 9.939986 20.000000
12.300000 13.490014 0.000000
12.300000 13.490014 20.000000
13.530000 15.620014 0.000000
13.530000 15.620014 20.000000
12.300000 16.329986 0.000000
12.300000 16.329986 20.000000
13.530000 14.199986 0.000000
13.530000 14.199986 20.000000
14.760000 0.710014 0.000000
14.760000 0.710014 20.000000
15.990000 2.840014 0.000000
15.990000 2.840014 20.000000
14.760000 3.549986 0.000000
14.760000 3.549986 20.000000
15.990000 1.419986 0.000000
15.990000 1.419986 20.000000
14.760000 4.970014 0.000000
14.760000 4.970014 20.000000
15.990000 7.100014 0.000000
15.990000 7.100014 20.000000
14.760000 7.809986 0.000000
14.760000 7.809986 20.000000
15.990000 5.679986 0.000000
15.990000 5.679986 20.000000
14.760000 9.230014 0.000000
14.760000 9.230014 20.000000
15.990000 11.360014 0.000000
15.990000 11.360014 20.000000
14.760000 12.069986 0.000000
14.760000 12.069986 20.000000
15.990000 9.939986 0.000000
15.990000 9.939986 20.000000
14.760000 13.490014 0.000000
14.760000 13.490014 20.000000
15.990000 15.620014 0.000000
15.990000 15.620014 20.000000
14.760000 16.329986 0.000000
14.760000 16.329986 20.000000
15.990000 14.199986 0.000000
15.990000 14.199986 20.000000
POINT_DATA 240
SCALARS my_scalars float
LOOKUP_TABLE default
1.7
1.7
1.7
1.7
1.7
1.7
1.7
1.7
1.7
1.7
1.7
1.7
1.7
1.7
1.7
1.7
1.7
1.7
1.7
1.7
1.7
1.7
1.7
1.7
1.7
1.7
1.7
1.7
1.7
1.7
1.7
1.7
1.7
1.7
1.7
1.7
1.7
1.7
1.7
1.7
1.7
1.7
1.7
1.7
1.7
1.7
1.7
1.7
1.7
1.7
1.7
1.7
1.7
1.7
1.7
1.7
1.7
1.7
1.7
1.7
1.7
1.7
1.7
1.7
1.7
1.7
1.7
1.7
1.7
1.7
1.7
1.7
1.7
1.7
1.7
1.7
1.7
1.7
1.7
1.7
1.7
1.7
1.7
1.7
1.7
1.7
1.7
1.7
1.7
1.7
1.7
1.7
1.7
1.7
1.7
1.7
1.7
1.7
1.7
1.7
1.7
1.7
1.7
1.7
1.7
1.7
1.7
1.7
1.7
1.7
1.7
1.7
1.7
1.7
1.7
1.7
1.7
1.7
1.7
1.7
1.7
1.7
1.7
1.7
1.7
1.7
1.7
1.7
1.7
1.7
1.7
1.7
1.7
1.7
1.7
1.7
1.7
1.7
1.7
1.7
1.7
1.7
1.7
1.7
1.7
1.7
1.7
1.7
1.7
1.7
1.7
1.7
1.7
1.7
1.7
1.7
1.7
1.7
1.7
1.7
1.7
1.7
1.7
1.7
1.7
1.7
1.7
1.7
1.7
1.7
1.7
1.7
1.7
1.7
1.7
1.7
1.7
1.7
1.7
1.7
1.7
1.7
1.7
1.7
1.7
1.7
1.7
1.7
1.7
1.7
1.7
1.7
1.7
1.7
1.7
1.7
1.7
1.7
1.7
1.7
1.7
1.7
1.7
1.7
1.7
1.7
1.7
1.7
1.7
1.7
1.7
1.7
1.7
1.7
1.7
1.7
1.7
1.7
1.7
1.7
1.7
1.7
1.7
1.7
1.7
1.7
1.7
1.7
1.7
1.7
1.7
1.7
1.7
1.7
1.7
1.7
1.7
1.7
1.7
1.7
VECTORS vectors float
0.3125 0 0
0.3125 0 0
0.3125 0 0
0.3125 0 0
0.3125 0 0
0.3125 0 0
0.3125 0 0
0.3125 0 0
0.3125 0 0
0.3125 0 0
0.3125 0 0
0.3125 0 0
0.3125 0 0
0.3125 0 0
0.3125 0 0
0.3125 0 0
0.3125 0 0
0.3125 0 0
0.3125 0 0
0.3125 0 0
0.3125 0 0
0.3125 0 0
0.3125 0 0
0.3125 0 0
0.3125 0 0
0.3125 0 0
0.3125 0 0
0.3125 0 0
0.3125 0 0
0.3125 0 0
0.3125 0 0
0.3125 0 0
0.3125 0 0
0.3125 0 0
0.3125 0 0
0.3125 0 0
0.3125 0 0
0.3125 0 0
0.3125 0 0
0.3125 0 0
0.3125 0 0
0.3125 0 0
0.3125 0 0
0.3125 0 0
0.3125 0 0
0.3125 0 0
0.3125 0 0
0.3125 0 0
0.3125 0 0
0.3125 0 0
0.3125 0 0
0.3125 0 0
0.3125 0 0
0.3125 0 0
0.3125 0 0
0.3125 0 0
0.3125 0 0
0.3125 0 0
0.3125 0 0
0.3125 0 0
0.3125 0 0
0.3125 0 0
0.3125 0 0
0.3125 0 0
0.3125 0 0
0.3125 0 0
0.3125 0 0
0.3125 0 0
0.3125 0 0
0.3125 0 0
0.3125 0 0
0.3125 0 0
0.3125 0 0
0.3125 0 0
0.3125 0 0
0.3125 0 0
0.3125 0 0
0.3125 0 0
0.3125 0 0
0.3125 0 0
0.3125 0 0
0.3125 0 0
0.3125 0 0
0.3125 0 0
0.3125 0 0
0.3125 0 0
0.3125 0 0
0.3125 0 0
0.3125 0 0
0.3125 0 0
0.3125 0 0
0.3125 0 0
0.3125 0 0
0.3125 0 0
0.3125 0 0
0.3125 0 0
0.3125 0 0
0.3125 0 0
0.3125 0 0
0.3125 0 0
0.3125 0 0
0.3125 0 0
0.3125 0 0
0.3125 0 0
0.3125 0 0
0.3125 0 0
0.3125 0 0
0.3125 0 0
0.3125 0 0
0.3125 0 0
0.3125 0 0
0.3125 0 0
0.3125 0 0
0.3125 0 0
0.3125 0 0
0.3125 0 0
0.3125 0 0
0.3125 0 0
0.3125 0 0
0.3125 0 0
0.3125 0 0
0.3125 0 0
0.3125 0 0
0.3125 0 0
0.3125 0 0
0.3125 0 0
0.3125 0 0
0.3125 0 0
0.3125 0 0
0.3125 0 0
0.3125 0 0
0.3125 0 0
0.3125 0 0
0.3125 0 0
0.3125 0 0
0.3125 0 0
0.3125 0 0
0.3125 0 0
0.3125 0 0
0.3125 0 0
0.3125 0 0
0.3125 0 0
0.3125 0 0
0.3125 0 0
0.3125 0 0
0.3125 0 0
0.3125 0 0
0.3125 0 0
0.3125 0 0
0.3125 0 0
0.3125 0 0
0.3125 0 0
0.3125 0 0
0.3125 0 0
0.3125 0 0
0.3125 0 0
0.3125 0 0
0.3125 0 0
0.3125 0 0
0.3125 0 0
0.3125 0 0
0.3125 0 0
0.3125 0 0
0.3125 0 0
0.3125 0 0
0.3125 0 0
0.3125 0 0
0.3125 0 0
0.3125 0 0
0.3125 0 0
0.3125 0 0
0.3125 0 0
0.3125 0 0
0.3125 0 0
0.3125 0 0
0.3125 0 0
0.3125 0 0
0.3125 0 0
0.3125 0 0
0.3125 0 0
0.3125 0 0
0.3125 0 0
0.3125 0 0
0.3125 0 0
0.3125 0 0
0.3125 0 0
0.3125 0 0
0.3125 0 0
0.3125 0 0
0.3125 0 0
0.3125 0 0
0.3125 0 0
0.3125 0 0
0.3125 0 0
0.3125 0 0
0.3125 0 0
0.3125 0 0
0.3125 0 0
0.3125 0 0
0.3125 0 0
0.3125 0 0
0.3125 0 0
0.3125 0 0
0.3125 0 0
0.3125 0 0
0.3125 0 0
0.3125 0 0
0.3125 0 0
0.3125 0 0
0.3125 0 0
0.3125 0 0
0.3125 0 0
0.3125 0 0
0.3125 0 0
0.3125 0 0
0.3125 0 0
0.3125 0 0
0.3125 0 0
0.3125 0 0
0.3125 0 0
0.3125 0 0
0.3125 0 0
0.3125 0 0
0.3125 0 0
0.3125 0 0
0.3125 0 0
0.3125 0 0
0.3125 0 0
0.3125 0 0
0.3125 0 0
0.3125 0 0
0.3125 0 0
0.3125 0 0
0.3125 0 0
0.3125 0 0
0.3125 0 0
0.3125 0 0
0.3125 0 0
0.3125 0 0
0.3125 0 0
