 DBCSR| Multiplication driver                                               BLAS
 DBCSR| Multrec recursion limit                                              512
 DBCSR| Multiplication stack size                                           1000
 DBCSR| Maximum elements for images                                    UNLIMITED
 DBCSR| Multiplicative factor virtual images                                   1
 DBCSR| Multiplication size stacks                                             3


  **** **** ******  **  PROGRAM STARTED AT               2020-11-20 23:42:40.231
 ***** ** ***  *** **   PROGRAM STARTED ON                         B126028.local
 **    ****   ******    PROGRAM STARTED BY                               leopold
 ***** **    ** ** **   PROGRAM PROCESS ID                                 90656
  **** **  *******  **  PROGRAM STARTED IN /private/var/folders/8y/7c7qkxcx5vxb7
                                           49rt3sw5sh40000gp/T/tmp_jwlsj3b/87/a5
                                           /21c4-dab9-4d0b-b696-b22f3f233845

 CP2K| version string:                                          CP2K version 6.1
 CP2K| source code revision number:                                    svn:18464
 CP2K| cp2kflags: libint fftw3 libxc no_statm_access accelerate                 
 CP2K| is freely available from                            https://www.cp2k.org/
 CP2K| Program compiled at                          Tue Nov 17 02:38:14 CET 2020
 CP2K| Program compiled on                                         B126028.local
 CP2K| Program compiled for                       Darwin-IntelMacintosh-gfortran
 CP2K| Data directory path    /private/tmp/cp2k-20201117-55277-73z00v/cp2k-6.1/d
 CP2K| Input file name                                                 aiida.inp

 GLOBAL| Force Environment number                                              1
 GLOBAL| Basis set file name                                        BASIS_MOLOPT
 GLOBAL| Potential file name                                      GTH_POTENTIALS
 GLOBAL| MM Potential file name                                     MM_POTENTIAL
 GLOBAL| Coordinate file name                                   aiida.coords.xyz
 GLOBAL| Method name                                                        CP2K
 GLOBAL| Project name                                                      aiida
 GLOBAL| Preferred FFT library                                             FFTW3
 GLOBAL| Preferred diagonalization lib.                                       SL
 GLOBAL| Run type                                                             MD
 GLOBAL| All-to-all communication in single precision                          F
 GLOBAL| FFTs using library dependent lengths                                  F
 GLOBAL| Global print level                                               MEDIUM
 GLOBAL| Total number of message passing processes                             1
 GLOBAL| Number of threads for this process                                    1
 GLOBAL| This output is from process                                           0
 GLOBAL| CPU model name : UNKNOWN

 MEMORY| system memory details [Kb]
 MEMORY|                        rank 0           min           max       average
 MEMORY| MemTotal                    0             0             0             0
 MEMORY| MemFree                     0             0             0             0
 MEMORY| Buffers                     0             0             0             0
 MEMORY| Cached                      0             0             0             0
 MEMORY| Slab                        0             0             0             0
 MEMORY| SReclaimable                0             0             0             0
 MEMORY| MemLikelyFree               0             0             0             0


 *** Fundamental physical constants (SI units) ***

 *** Literature: B. J. Mohr and B. N. Taylor,
 ***             CODATA recommended values of the fundamental physical
 ***             constants: 2006, Web Version 5.1
 ***             http://physics.nist.gov/constants

 Speed of light in vacuum [m/s]                             2.99792458000000E+08
 Magnetic constant or permeability of vacuum [N/A**2]       1.25663706143592E-06
 Electric constant or permittivity of vacuum [F/m]          8.85418781762039E-12
 Planck constant (h) [J*s]                                  6.62606896000000E-34
 Planck constant (h-bar) [J*s]                              1.05457162825177E-34
 Elementary charge [C]                                      1.60217648700000E-19
 Electron mass [kg]                                         9.10938215000000E-31
 Electron g factor [ ]                                     -2.00231930436220E+00
 Proton mass [kg]                                           1.67262163700000E-27
 Fine-structure constant                                    7.29735253760000E-03
 Rydberg constant [1/m]                                     1.09737315685270E+07
 Avogadro constant [1/mol]                                  6.02214179000000E+23
 Boltzmann constant [J/K]                                   1.38065040000000E-23
 Atomic mass unit [kg]                                      1.66053878200000E-27
 Bohr radius [m]                                            5.29177208590000E-11

 *** Conversion factors ***

 [u] -> [a.u.]                                              1.82288848426455E+03
 [Angstrom] -> [Bohr] = [a.u.]                              1.88972613288564E+00
 [a.u.] = [Bohr] -> [Angstrom]                              5.29177208590000E-01
 [a.u.] -> [s]                                              2.41888432650478E-17
 [a.u.] -> [fs]                                             2.41888432650478E-02
 [a.u.] -> [J]                                              4.35974393937059E-18
 [a.u.] -> [N]                                              8.23872205491840E-08
 [a.u.] -> [K]                                              3.15774647902944E+05
 [a.u.] -> [kJ/mol]                                         2.62549961709828E+03
 [a.u.] -> [kcal/mol]                                       6.27509468713739E+02
 [a.u.] -> [Pa]                                             2.94210107994716E+13
 [a.u.] -> [bar]                                            2.94210107994716E+08
 [a.u.] -> [atm]                                            2.90362800883016E+08
 [a.u.] -> [eV]                                             2.72113838565563E+01
 [a.u.] -> [Hz]                                             6.57968392072181E+15
 [a.u.] -> [1/cm] (wave numbers)                            2.19474631370540E+05
 [a.u./Bohr**2] -> [1/cm]                                   5.14048714338585E+03
 

 CELL_TOP| Volume [angstrom^3]:                                          101.606
 CELL_TOP| Vector a [angstrom     4.000     0.000     0.000    |a| =       4.000
 CELL_TOP| Vector b [angstrom     0.000     5.526     0.000    |b| =       5.526
 CELL_TOP| Vector c [angstrom     0.000     0.000     4.596    |c| =       4.596
 CELL_TOP| Angle (b,c), alpha [degree]:                                   90.000
 CELL_TOP| Angle (a,c), beta  [degree]:                                   90.000
 CELL_TOP| Angle (a,b), gamma [degree]:                                   90.000
 CELL_TOP| Numerically orthorhombic:                                         YES

 GENERATE|  Preliminary Number of Bonds generated:                             0
 GENERATE|  Achieved consistency in connectivity generation.

 CELL| Volume [angstrom^3]:                                              101.606
 CELL| Vector a [angstrom]:       4.000     0.000     0.000    |a| =       4.000
 CELL| Vector b [angstrom]:       0.000     5.526     0.000    |b| =       5.526
 CELL| Vector c [angstrom]:       0.000     0.000     4.596    |c| =       4.596
 CELL| Angle (b,c), alpha [degree]:                                       90.000
 CELL| Angle (a,c), beta  [degree]:                                       90.000
 CELL| Angle (a,b), gamma [degree]:                                       90.000
 CELL| Numerically orthorhombic:                                             YES

 CELL_REF| Volume [angstrom^3]:                                          101.606
 CELL_REF| Vector a [angstrom     4.000     0.000     0.000    |a| =       4.000
 CELL_REF| Vector b [angstrom     0.000     5.526     0.000    |b| =       5.526
 CELL_REF| Vector c [angstrom     0.000     0.000     4.596    |c| =       4.596
 CELL_REF| Angle (b,c), alpha [degree]:                                   90.000
 CELL_REF| Angle (a,c), beta  [degree]:                                   90.000
 CELL_REF| Angle (a,b), gamma [degree]:                                   90.000
 CELL_REF| Numerically orthorhombic:                                         YES

 *******************************************************************************
 *******************************************************************************
 **                                                                           **
 **     #####                         ##              ##                      **
 **    ##   ##            ##          ##              ##                      **
 **   ##     ##                       ##            ######                    **
 **   ##     ##  ##   ##  ##   #####  ##  ##   ####   ##    #####    #####    **
 **   ##     ##  ##   ##  ##  ##      ## ##   ##      ##   ##   ##  ##   ##   **
 **   ##  ## ##  ##   ##  ##  ##      ####     ###    ##   ######   ######    **
 **    ##  ###   ##   ##  ##  ##      ## ##      ##   ##   ##       ##        **
 **     #######   #####   ##   #####  ##  ##  ####    ##    #####   ##        **
 **           ##                                                    ##        **
 **                                                                           **
 **                                                ... make the atoms dance   **
 **                                                                           **
 **            Copyright (C) by CP2K developers group (2000 - 2018)           **
 **                                                                           **
 *******************************************************************************

 DFT| Spin restricted Kohn-Sham (RKS) calculation                            RKS
 DFT| Multiplicity                                                             1
 DFT| Number of spin states                                                    1
 DFT| Charge                                                                   0
 DFT| Self-interaction correction (SIC)                                       NO
 DFT| Cutoffs: density                                              1.000000E-10
 DFT|          gradient                                             1.000000E-10
 DFT|          tau                                                  1.000000E-10
 DFT|          cutoff_smoothing_range                               0.000000E+00
 DFT| XC density smoothing                                                  NONE
 DFT| XC derivatives                                                          PW
 FUNCTIONAL| ROUTINE=NEW
 FUNCTIONAL| PBE:
 FUNCTIONAL| J.P.Perdew, K.Burke, M.Ernzerhof, Phys. Rev. Letter, vol. 77, n 18,
 FUNCTIONAL|  pp. 3865-3868, (1996){spin unpolarized}                           
 vdW POTENTIAL|                                                   Pair Potential
 vdW POTENTIAL|          DFT-D3 (Version 3.1)
 vdW POTENTIAL|          Potential Form: S. Grimme et al, JCP 132: 154104 (2010)
 vdW POTENTIAL|          BJ Damping: S. Grimme et al, JCC 32: 1456 (2011)
 vdW POTENTIAL|          Cutoff Radius [Bohr]:                             20.00
 vdW POTENTIAL|          s6 Scaling Factor:                               1.0000
 vdW POTENTIAL|          a1 Damping Factor:                               0.4289
 vdW POTENTIAL|          s8 Scaling Factor:                               0.7875
 vdW POTENTIAL|          a2 Damping Factor:                               4.4407
 vdW POTENTIAL|          Cutoff for CN calculation:                   0.1000E-05

 QS| Method:                                                                 GPW
 QS| Density plane wave grid type                        NON-SPHERICAL FULLSPACE
 QS| Number of grid levels:                                                    4
 QS| Density cutoff [a.u.]:                                                150.0
 QS| Multi grid cutoff [a.u.]: 1) grid level                               150.0
 QS|                           2) grid level                                50.0
 QS|                           3) grid level                                16.7
 QS|                           4) grid level                                 5.6
 QS| Grid level progression factor:                                          3.0
 QS| Relative density cutoff [a.u.]:                                        15.0
 QS| Consistent realspace mapping and integration 
 QS| Interaction thresholds: eps_pgf_orb:                                1.0E-05
 QS|                         eps_filter_matrix:                          0.0E+00
 QS|                         eps_core_charge:                            1.0E-12
 QS|                         eps_rho_gspace:                             1.0E-10
 QS|                         eps_rho_rspace:                             1.0E-10
 QS|                         eps_gvg_rspace:                             1.0E-05
 QS|                         eps_ppl:                                    1.0E-02
 QS|                         eps_ppnl:                                   1.0E-07


 ATOMIC KIND INFORMATION

  1. Atomic kind: O                                     Number of atoms:       1

     Orbital Basis Set                                     DZVP-MOLOPT-SR-GTH-q6

       Number of orbital shell sets:                                           1
       Number of orbital shells:                                               5
       Number of primitive Cartesian functions:                                5
       Number of Cartesian basis functions:                                   14
       Number of spherical basis functions:                                   13
       Norm type:                                                              2

       Normalised Cartesian orbitals:

                        Set   Shell   Orbital            Exponent    Coefficient

                          1       1    2s               10.389228       0.396646
                                                         3.849621       0.208811
                                                         1.388401      -0.301641
                                                         0.496955      -0.274061
                                                         0.162492      -0.033677

                          1       2    3s               10.389228       0.303673
                                                         3.849621       0.240943
                                                         1.388401      -0.313066
                                                         0.496955      -0.043055
                                                         0.162492       0.213991

                          1       3    3px              10.389228      -1.530415
                                                         3.849621      -1.371928
                                                         1.388401      -0.761951
                                                         0.496955      -0.253695
                                                         0.162492      -0.035541
                          1       3    3py              10.389228      -1.530415
                                                         3.849621      -1.371928
                                                         1.388401      -0.761951
                                                         0.496955      -0.253695
                                                         0.162492      -0.035541
                          1       3    3pz              10.389228      -1.530415
                                                         3.849621      -1.371928
                                                         1.388401      -0.761951
                                                         0.496955      -0.253695
                                                         0.162492      -0.035541

                          1       4    4px              10.389228      -0.565392
                                                         3.849621      -0.038231
                                                         1.388401      -0.382373
                                                         0.496955       0.179070
                                                         0.162492       0.122714
                          1       4    4py              10.389228      -0.565392
                                                         3.849621      -0.038231
                                                         1.388401      -0.382373
                                                         0.496955       0.179070
                                                         0.162492       0.122714
                          1       4    4pz              10.389228      -0.565392
                                                         3.849621      -0.038231
                                                         1.388401      -0.382373
                                                         0.496955       0.179070
                                                         0.162492       0.122714

                          1       5    4dx2             10.389228       1.867377
                                                         3.849621       0.670994
                                                         1.388401       1.353441
                                                         0.496955       0.273538
                                                         0.162492       0.006620
                          1       5    4dxy             10.389228       3.234392
                                                         3.849621       1.162195
                                                         1.388401       2.344229
                                                         0.496955       0.473781
                                                         0.162492       0.011466
                          1       5    4dxz             10.389228       3.234392
                                                         3.849621       1.162195
                                                         1.388401       2.344229
                                                         0.496955       0.473781
                                                         0.162492       0.011466
                          1       5    4dy2             10.389228       1.867377
                                                         3.849621       0.670994
                                                         1.388401       1.353441
                                                         0.496955       0.273538
                                                         0.162492       0.006620
                          1       5    4dyz             10.389228       3.234392
                                                         3.849621       1.162195
                                                         1.388401       2.344229
                                                         0.496955       0.473781
                                                         0.162492       0.011466
                          1       5    4dz2             10.389228       1.867377
                                                         3.849621       0.670994
                                                         1.388401       1.353441
                                                         0.496955       0.273538
                                                         0.162492       0.006620

     GTH Potential information for                                    GTH-PBE-q6

       Description:                       Goedecker-Teter-Hutter pseudopotential
                                           Goedecker et al., PRB 54, 1703 (1996)
                                          Hartwigsen et al., PRB 58, 3641 (1998)
                                                      Krack, TCA 114, 145 (2005)

       Gaussian exponent of the core charge distribution:               8.360253
       Electronic configuration (s p d ...):                               2   4

       Parameters of the local part of the GTH pseudopotential:

                          rloc        C1          C2          C3          C4
                        0.244554  -16.667215    2.487311

       Parameters of the non-local part of the GTH pseudopotential:

                   l      r(l)      h(i,j,l)

                   0    0.220956   18.337458
                   1    0.211332

  2. Atomic kind: H                                     Number of atoms:       2

     Orbital Basis Set                                     DZVP-MOLOPT-SR-GTH-q1

       Number of orbital shell sets:                                           1
       Number of orbital shells:                                               3
       Number of primitive Cartesian functions:                                5
       Number of Cartesian basis functions:                                    5
       Number of spherical basis functions:                                    5
       Norm type:                                                              2

       Normalised Cartesian orbitals:

                        Set   Shell   Orbital            Exponent    Coefficient

                          1       1    2s               10.068468      -0.133023
                                                         2.680223      -0.177618
                                                         0.791502      -0.258419
                                                         0.239116      -0.107525
                                                         0.082193      -0.014019

                          1       2    3s               10.068468       0.344673
                                                         2.680223       1.819821
                                                         0.791502      -0.999069
                                                         0.239116       0.017430
                                                         0.082193       0.082660

                          1       3    3px              10.068468       0.155326
                                                         2.680223       0.367157
                                                         0.791502       0.311480
                                                         0.239116       0.080105
                                                         0.082193       0.033440
                          1       3    3py              10.068468       0.155326
                                                         2.680223       0.367157
                                                         0.791502       0.311480
                                                         0.239116       0.080105
                                                         0.082193       0.033440
                          1       3    3pz              10.068468       0.155326
                                                         2.680223       0.367157
                                                         0.791502       0.311480
                                                         0.239116       0.080105
                                                         0.082193       0.033440

     GTH Potential information for                                    GTH-PBE-q1

       Description:                       Goedecker-Teter-Hutter pseudopotential
                                           Goedecker et al., PRB 54, 1703 (1996)
                                          Hartwigsen et al., PRB 58, 3641 (1998)
                                                      Krack, TCA 114, 145 (2005)

       Gaussian exponent of the core charge distribution:              12.500000
       Electronic configuration (s p d ...):                                   1

       Parameters of the local part of the GTH pseudopotential:

                          rloc        C1          C2          C3          C4
                        0.200000   -4.178900    0.724463


 MOLECULE KIND INFORMATION


 All atoms are their own molecule, skipping detailed information


 TOTAL NUMBERS AND MAXIMUM NUMBERS

  Total number of            - Atomic kinds:                                   2
                             - Atoms:                                          3
                             - Shell sets:                                     3
                             - Shells:                                        11
                             - Primitive Cartesian functions:                 15
                             - Cartesian basis functions:                     24
                             - Spherical basis functions:                     23

  Maximum angular momentum of- Orbital basis functions:                        2
                             - Local part of the GTH pseudopotential:          2
                             - Non-local part of the GTH pseudopotential:      0


 MODULE QUICKSTEP:  ATOMIC COORDINATES IN angstrom

  Atom  Kind  Element       X           Y           Z          Z(eff)       Mass

       1     1 O    8    2.000000    2.763239    2.604346      6.00      15.9994
       2     2 H    1    2.000000    3.519871    1.998134      1.00       1.0079
       3     2 H    1    2.000000    2.006607    1.998134      1.00       1.0079




 SCF PARAMETERS         Density guess:                                   RESTART
                        --------------------------------------------------------
                        max_scf:                                              50
                        max_scf_history:                                       0
                        max_diis:                                              4
                        --------------------------------------------------------
                        eps_scf:                                        1.00E-07
                        eps_scf_history:                                0.00E+00
                        eps_diis:                                       1.00E-01
                        eps_eigval:                                     1.00E-05
                        --------------------------------------------------------
                        level_shift [a.u.]:                                 0.00
                        --------------------------------------------------------
                        Outer loop SCF in use 
                        No variables optimised in outer loop
                        eps_scf                                         1.00E-07
                        max_scf                                                5
                        No outer loop optimization
                        step_size                                       5.00E-01

 PW_GRID| Information for grid number                                          1
 PW_GRID| Cutoff [a.u.]                                                    150.0
 PW_GRID| spherical cutoff:                                                   NO
 PW_GRID|   Bounds   1            -22      22                Points:          45
 PW_GRID|   Bounds   2            -30      29                Points:          60
 PW_GRID|   Bounds   3            -24      23                Points:          48
 PW_GRID| Volume element (a.u.^3)  0.5291E-02     Volume (a.u.^3)       685.6686
 PW_GRID| Grid span                                                    FULLSPACE

 PW_GRID| Information for grid number                                          2
 PW_GRID| Cutoff [a.u.]                                                     50.0
 PW_GRID| spherical cutoff:                                                   NO
 PW_GRID|   Bounds   1            -12      12                Points:          25
 PW_GRID|   Bounds   2            -18      17                Points:          36
 PW_GRID|   Bounds   3            -13      13                Points:          27
 PW_GRID| Volume element (a.u.^3)  0.2822E-01     Volume (a.u.^3)       685.6686
 PW_GRID| Grid span                                                    FULLSPACE

 PW_GRID| Information for grid number                                          3
 PW_GRID| Cutoff [a.u.]                                                     16.7
 PW_GRID| spherical cutoff:                                                   NO
 PW_GRID|   Bounds   1             -7       7                Points:          15
 PW_GRID|   Bounds   2            -10       9                Points:          20
 PW_GRID|   Bounds   3             -7       7                Points:          15
 PW_GRID| Volume element (a.u.^3)  0.1524         Volume (a.u.^3)       685.6686
 PW_GRID| Grid span                                                    FULLSPACE

 PW_GRID| Information for grid number                                          4
 PW_GRID| Cutoff [a.u.]                                                      5.6
 PW_GRID| spherical cutoff:                                                   NO
 PW_GRID|   Bounds   1             -4       4                Points:           9
 PW_GRID|   Bounds   2             -6       5                Points:          12
 PW_GRID|   Bounds   3             -4       4                Points:           9
 PW_GRID| Volume element (a.u.^3)  0.7054         Volume (a.u.^3)       685.6686
 PW_GRID| Grid span                                                    FULLSPACE

 POISSON| Solver                                                        PERIODIC
 POISSON| Periodicity                                                        XYZ

 RS_GRID| Information for grid number                                          1
 RS_GRID|   Bounds   1            -22      22                Points:          45
 RS_GRID|   Bounds   2            -30      29                Points:          60
 RS_GRID|   Bounds   3            -24      23                Points:          48

 RS_GRID| Information for grid number                                          2
 RS_GRID|   Bounds   1            -12      12                Points:          25
 RS_GRID|   Bounds   2            -18      17                Points:          36
 RS_GRID|   Bounds   3            -13      13                Points:          27

 RS_GRID| Information for grid number                                          3
 RS_GRID|   Bounds   1             -7       7                Points:          15
 RS_GRID|   Bounds   2            -10       9                Points:          20
 RS_GRID|   Bounds   3             -7       7                Points:          15

 RS_GRID| Information for grid number                                          4
 RS_GRID|   Bounds   1             -4       4                Points:           9
 RS_GRID|   Bounds   2             -6       5                Points:          12
 RS_GRID|   Bounds   3             -4       4                Points:           9

 MD| Molecular Dynamics Protocol 
 MD| Ensemble Type                                                           NVT
 MD| Number of Time Steps                                                      2
 MD| Time Step [fs]                                                         1.00
 MD| Temperature [K]                                                      300.00
 MD| Temperature tolerance [K]                                              0.00
 MD| Print MD information every                                        1 step(s)
 MD| File type     Print frequency[steps]                             File names
 MD| Coordinates            1                                    aiida-pos-1.xyz
 MD| Velocities             1                                    aiida-vel-1.xyz
 MD| Energies               1                                       aiida-1.ener
 MD| Dump                   1                                    aiida-1.restart

 ROT| Rotational Analysis Info 
 ROT| Principal axes and moments of inertia in atomic units:
 ROT|                                1                 2                 3
 ROT| EIGENVALUES            0.428286673E+04   0.751262966E+04   0.117954964E+05
 ROT|      X                     0.000000010      -0.000000166      -1.000000000
 ROT|      Y                     1.000000000      -0.000000006       0.000000010
 ROT|      Z                    -0.000000006      -1.000000000       0.000000166
 ROT| Numer of Rotovibrational vectors:     6

 Calculation of degrees of freedom
                                                      Number of atoms:         3
                                 Number of Intramolecular constraints:         0
                                 Number of Intermolecular constraints:         0
                                  Invariants(translation + rotations):         3
                                                   Degrees of freedom:         6


 Restraints Information
                                  Number of Intramolecular restraints:         0
                                  Number of Intermolecular restraints:         0

 THERMOSTAT| Thermostat Info for PARTICLES
 THERMOSTAT| Type of thermostat            Canonical Sampling/Velocity Rescaling
 THERMOSTAT| CSVR time constant [  fs]                                    100.00
 THERMOSTAT| Initial Kinetic Energy                                     0.000000
 THERMOSTAT| End of Thermostat Info for PARTICLES

 ************************** Velocities initialization **************************
 Initial Temperature                                                    300.00 K
 COM velocity:           -0.000000000000      0.000000000000      0.000000000000
 *******************************************************************************


 Number of electrons:                                                          8
 Number of occupied orbitals:                                                  4
 Number of molecular orbitals:                                                 4

 Number of orbital functions:                                                 23
 Number of independent orbital functions:                                     23

 Extrapolation method: initial_guess


 SCF WAVEFUNCTION OPTIMIZATION

  ----------------------------------- OT ---------------------------------------
  Minimizer      : DIIS                : direct inversion
                                         in the iterative subspace
                                         using   7 DIIS vectors
                                         safer DIIS on
  Preconditioner : FULL_ALL            : diagonalization, state selective
  Precond_solver : DEFAULT
  stepsize       :    0.15000000                  energy_gap     :    0.08000000
  eps_taylor     :   0.10000E-15                  max_taylor     :             4
  ----------------------------------- OT ---------------------------------------

  Step     Update method      Time    Convergence         Total energy    Change
  ------------------------------------------------------------------------------
     1 OT DIIS     0.15E+00    0.2     3.2911E-09       -17.2063362203 -1.72E+01

  *** SCF run converged in     1 steps ***


  Electronic density on regular grids:         -7.9999999614        0.0000000386
  Core density on regular grids:                7.9999999998       -0.0000000002
  Total charge density on r-space grids:        0.0000000385
  Total charge density g-space grids:           0.0000000385

  Overlap energy of the core charge distribution:               0.00000004360299
  Self energy of the core charge distribution:                -44.34715499673765
  Core Hamiltonian energy:                                     12.95740324414234
  Hartree energy:                                              18.42801067437945
  Exchange-correlation energy:                                 -4.24373374009322
  Dispersion energy:                                           -0.00086144564027

  Total energy:                                               -17.20633622034635

  outer SCF iter =    1 RMS gradient =   0.33E-08 energy =        -17.2063362203
  outer SCF loop converged in   1 iterations or    1 steps


 ENERGY| Total FORCE_EVAL ( QS ) energy (a.u.):              -17.206336220346259


 MD_ENERGIES| Initialization proceeding


 ******************************** GO CP2K GO! **********************************
 INITIAL POTENTIAL ENERGY[hartree]     =                     -0.172063362203E+02
 INITIAL KINETIC ENERGY[hartree]       =                      0.285013380896E-02
 INITIAL TEMPERATURE[K]                =                                 300.000
 INITIAL PRESSURE[bar]                 =                      0.134938866049E+05
 INITIAL VOLUME[bohr^3]                =                      0.685668599694E+03
 INITIAL CELL LNTHS[bohr]   =      0.7558905E+01   0.1044353E+02   0.8685765E+01
 INITIAL CELL ANGLS[deg]    =      0.9000000E+02   0.9000000E+02   0.9000000E+02
 ******************************** GO CP2K GO! **********************************

 Number of electrons:                                                          8
 Number of occupied orbitals:                                                  4
 Number of molecular orbitals:                                                 4

 Number of orbital functions:                                                 23
 Number of independent orbital functions:                                     23

 Parameters for the always stable predictor-corrector (ASPC) method:

  ASPC order: 0

  B(1) =   1.000000

 Extrapolation method: ASPC


 SCF WAVEFUNCTION OPTIMIZATION

  ----------------------------------- OT ---------------------------------------
  Minimizer      : DIIS                : direct inversion
                                         in the iterative subspace
                                         using   7 DIIS vectors
                                         safer DIIS on
  Preconditioner : FULL_ALL            : diagonalization, state selective
  Precond_solver : DEFAULT
  stepsize       :    0.15000000                  energy_gap     :    0.08000000
  eps_taylor     :   0.10000E-15                  max_taylor     :             4
  ----------------------------------- OT ---------------------------------------

  Step     Update method      Time    Convergence         Total energy    Change
  ------------------------------------------------------------------------------
     1 OT DIIS     0.15E+00    0.2     0.00561282       -17.2054305704 -1.72E+01
     2 OT DIIS     0.15E+00    0.2     0.00262721       -17.2056806539 -2.50E-04
     3 OT DIIS     0.15E+00    0.2     0.00134152       -17.2057227574 -4.21E-05
     4 OT DIIS     0.15E+00    0.2     0.00006198       -17.2057351409 -1.24E-05
     5 OT DIIS     0.15E+00    0.2     0.00001501       -17.2057351785 -3.76E-08
     6 OT DIIS     0.15E+00    0.2     0.00000156       -17.2057351809 -2.44E-09
     7 OT DIIS     0.15E+00    0.2     0.00000029       -17.2057351809 -2.60E-11
     8 OT DIIS     0.15E+00    0.2     0.00000003       -17.2057351809 -6.54E-13

  *** SCF run converged in     8 steps ***


  Electronic density on regular grids:         -7.9999999750        0.0000000250
  Core density on regular grids:                7.9999999997       -0.0000000003
  Total charge density on r-space grids:        0.0000000247
  Total charge density g-space grids:           0.0000000247

  Overlap energy of the core charge distribution:               0.00000002728951
  Self energy of the core charge distribution:                -44.34715499673765
  Core Hamiltonian energy:                                     12.91108720922708
  Hartree energy:                                              18.46180087393497
  Exchange-correlation energy:                                 -4.23060577546807
  Dispersion energy:                                           -0.00086251916391

  Total energy:                                               -17.20573518091808

  outer SCF iter =    1 RMS gradient =   0.28E-07 energy =        -17.2057351809
  outer SCF loop converged in   1 iterations or    8 steps


 ENERGY| Total FORCE_EVAL ( QS ) energy (a.u.):              -17.205735180917682


 Centre of mass motion (COM):                            x =        0.0000000545
                                                         y =        0.0000000022
                                                         z =        0.0000005433

 *******************************************************************************
 ENSEMBLE TYPE                =                                              NVT
 STEP NUMBER                  =                                                1
 TIME [fs]                    =                                         1.000000
 CONSERVED QUANTITY [hartree] =                              -0.172034137186E+02

                                              INSTANTANEOUS             AVERAGES
 CPU TIME [s]                 =                        2.54                 2.54
 ENERGY DRIFT PER ATOM [K]    =          0.761731576570E+01   0.000000000000E+00
 POTENTIAL ENERGY[hartree]    =         -0.172057351809E+02  -0.172057351809E+02
 KINETIC ENERGY [hartree]     =          0.197275560252E-02   0.197275560252E-02
 TEMPERATURE [K]              =                     207.649              207.649
 PRESSURE [bar]               =          0.664780894421E+04   0.664780894421E+04
 *******************************************************************************


 Number of electrons:                                                          8
 Number of occupied orbitals:                                                  4
 Number of molecular orbitals:                                                 4

 Number of orbital functions:                                                 23
 Number of independent orbital functions:                                     23

 Parameters for the always stable predictor-corrector (ASPC) method:

  ASPC order: 0

  B(1) =   2.000000
  B(2) =  -1.000000

 Extrapolation method: ASPC


 SCF WAVEFUNCTION OPTIMIZATION

  ----------------------------------- OT ---------------------------------------
  Minimizer      : DIIS                : direct inversion
                                         in the iterative subspace
                                         using   7 DIIS vectors
                                         safer DIIS on
  Preconditioner : FULL_ALL            : diagonalization, state selective
  Precond_solver : DEFAULT
  stepsize       :    0.15000000                  energy_gap     :    0.08000000
  eps_taylor     :   0.10000E-15                  max_taylor     :             4
  ----------------------------------- OT ---------------------------------------

  Step     Update method      Time    Convergence         Total energy    Change
  ------------------------------------------------------------------------------
     1 OT DIIS     0.15E+00    0.2     0.00219007       -17.2048691151 -1.72E+01
     2 OT DIIS     0.15E+00    0.2     0.00109480       -17.2049041095 -3.50E-05
     3 OT DIIS     0.15E+00    0.2     0.00050071       -17.2049106192 -6.51E-06
     4 OT DIIS     0.15E+00    0.2     0.00002671       -17.2049125078 -1.89E-06
     5 OT DIIS     0.15E+00    0.2     0.00000609       -17.2049125152 -7.37E-09
     6 OT DIIS     0.15E+00    0.2     0.00000070       -17.2049125156 -4.04E-10
     7 OT DIIS     0.15E+00    0.2     0.00000013       -17.2049125156 -5.40E-12
     8 OT DIIS     0.15E+00    0.2     0.00000001       -17.2049125156  2.06E-13

  *** SCF run converged in     8 steps ***


  Electronic density on regular grids:         -7.9999999846        0.0000000154
  Core density on regular grids:                7.9999999996       -0.0000000004
  Total charge density on r-space grids:        0.0000000151
  Total charge density g-space grids:           0.0000000151

  Overlap energy of the core charge distribution:               0.00000002216272
  Self energy of the core charge distribution:                -44.34715499673765
  Core Hamiltonian energy:                                     12.88614133533940
  Hartree energy:                                              18.48044400430829
  Exchange-correlation energy:                                 -4.22347950883368
  Dispersion energy:                                           -0.00086337186357

  Total energy:                                               -17.20491251562449

  outer SCF iter =    1 RMS gradient =   0.12E-07 energy =        -17.2049125156
  outer SCF loop converged in   1 iterations or    8 steps


 !-----------------------------------------------------------------------------!
                     Mulliken Population Analysis

 #  Atom  Element  Kind  Atomic population                           Net charge
       1     O        1          6.295154                             -0.295154
       2     H        2          0.861825                              0.138175
       3     H        2          0.843021                              0.156979
 # Total charge                              8.000000                  0.000000

 !-----------------------------------------------------------------------------!
  
  Eigenvalues of the occupied subspace spin            1
 ---------------------------------------------
      -0.86540822     -0.41103533     -0.28969451     -0.19823638
 Fermi Energy [eV] :   -5.394286
  
  Lowest Eigenvalues of the unoccupied subspace spin            1
 -----------------------------------------------------
  Reached convergence in           63  iterations 
       0.12961574
  
 HOMO - LUMO gap [eV] :    8.921310

 ENERGY| Total FORCE_EVAL ( QS ) energy (a.u.):              -17.204912515624478


 Centre of mass motion (COM):                            x =        0.0000002270
                                                         y =        0.0000000097
                                                         z =        0.0000010403

 *******************************************************************************
 ENSEMBLE TYPE                =                                              NVT
 STEP NUMBER                  =                                                2
 TIME [fs]                    =                                         2.000000
 CONSERVED QUANTITY [hartree] =                              -0.172033407996E+02

                                              INSTANTANEOUS             AVERAGES
 CPU TIME [s]                 =                        2.34                 2.44
 ENERGY DRIFT PER ATOM [K]    =          0.152926420178E+02   0.764632100892E+01
 POTENTIAL ENERGY[hartree]    =         -0.172049125156E+02  -0.172053238483E+02
 KINETIC ENERGY [hartree]     =          0.108382986923E-02   0.152829273587E-02
 TEMPERATURE [K]              =                     114.082              160.865
 PRESSURE [bar]               =          0.308620785321E+04   0.486700839871E+04
 *******************************************************************************


 -------------------------------------------------------------------------------
 -                                                                             -
 -                                DBCSR STATISTICS                             -
 -                                                                             -
 -------------------------------------------------------------------------------
 COUNTER                                    TOTAL       BLAS       SMM       ACC
 flops     4 x     1 x     4                   64     100.0%      0.0%      0.0%
 flops     4 x     1 x    23                  368     100.0%      0.0%      0.0%
 flops    23 x     1 x     4                  368     100.0%      0.0%      0.0%
 flops     1 x     1 x     1                  620     100.0%      0.0%      0.0%
 flops     5 x     5 x    23                 2300     100.0%      0.0%      0.0%
 flops     1 x     1 x    23                 5658     100.0%      0.0%      0.0%
 flops     5 x     1 x    23                 7360     100.0%      0.0%      0.0%
 flops    23 x     1 x     5                 7360     100.0%      0.0%      0.0%
 flops    23 x     1 x     1                 8740     100.0%      0.0%      0.0%
 flops    13 x     5 x     4                11960     100.0%      0.0%      0.0%
 flops     5 x    13 x     4                11960     100.0%      0.0%      0.0%
 flops     5 x     5 x     4                13800     100.0%      0.0%      0.0%
 flops     4 x     4 x     4                14720     100.0%      0.0%      0.0%
 flops     5 x     1 x     5                27400     100.0%      0.0%      0.0%
 flops    13 x    13 x     4                31096     100.0%      0.0%      0.0%
 flops    13 x     1 x     5                33540     100.0%      0.0%      0.0%
 flops     5 x     1 x    13                33540     100.0%      0.0%      0.0%
 flops    13 x     1 x    13                43602     100.0%      0.0%      0.0%
 flops     5 x     4 x     5                47200     100.0%      0.0%      0.0%
 flops     4 x     4 x    23                53728     100.0%      0.0%      0.0%
 flops    13 x     4 x     5                61360     100.0%      0.0%      0.0%
 flops     5 x     4 x    13                61360     100.0%      0.0%      0.0%
 flops    23 x     4 x     4                64768     100.0%      0.0%      0.0%
 flops    13 x     4 x    13                79768     100.0%      0.0%      0.0%
 flops    23 x     4 x    23               169280     100.0%      0.0%      0.0%
 flops inhomo. stacks                           0       0.0%      0.0%      0.0%
 flops total                       791.920000E+03     100.0%      0.0%      0.0%
 flops max/rank                    791.920000E+03     100.0%      0.0%      0.0%
 matmuls inhomo. stacks                         0       0.0%      0.0%      0.0%
 matmuls total                               2873     100.0%      0.0%      0.0%
 number of processed stacks                  1887     100.0%      0.0%      0.0%
 average stack size                                     1.5       0.0       0.0
 marketing flops                   822.832000E+03
 -------------------------------------------------------------------------------
 # multiplications                           1261
 max memory usage/rank               0.000000E+00
 # max total images/rank                        1
 # max 3D layers                                1
 # MPI messages exchanged                       0
 MPI messages size (bytes):
  total size                         0.000000E+00
  min size                           0.000000E+00
  max size                           0.000000E+00
  average size                       0.000000E+00
 MPI breakdown and total messages size (bytes):
             size <=      128                   0                        0
       128 < size <=     8192                   0                        0
      8192 < size <=    32768                   0                        0
     32768 < size <=   131072                   0                        0
    131072 < size <=  4194304                   0                        0
   4194304 < size <= 16777216                   0                        0
  16777216 < size                               0                        0
 -------------------------------------------------------------------------------

 MEMORY| Estimated peak process memory [MiB]                                   0

 -------------------------------------------------------------------------------
 ----                             MULTIGRID INFO                            ----
 -------------------------------------------------------------------------------
 count for grid        1:           4499          cutoff [a.u.]          150.00
 count for grid        2:           2191          cutoff [a.u.]           50.00
 count for grid        3:           2289          cutoff [a.u.]           16.67
 count for grid        4:           2151          cutoff [a.u.]            5.56
 total gridlevel count  :          11130

 -------------------------------------------------------------------------------
 -                                                                             -
 -                           R E F E R E N C E S                               -
 -                                                                             -
 -------------------------------------------------------------------------------
 
 CP2K version 6.1, the CP2K developers group (2018).
 CP2K is freely available from https://www.cp2k.org/ .

 Schuett, Ole; Messmer, Peter; Hutter, Juerg; VandeVondele, Joost. 
 Electronic Structure Calculations on Graphics Processing Units, John Wiley & Sons, Ltd, 173-190 (2016). 
 GPU-Accelerated Sparse Matrix-Matrix Multiplication for Linear Scaling Density Functional Theory.
 http://dx.doi.org/10.1002/9781118670712.ch8


 Borstnik, U; VandeVondele, J; Weber, V; Hutter, J. 
 PARALLEL COMPUTING, 40 (5-6), 47-58 (2014). 
 Sparse matrix multiplication: The distributed block-compressed sparse
 row library.
 http://dx.doi.org/10.1016/j.parco.2014.03.012


 Hutter, J; Iannuzzi, M; Schiffmann, F; VandeVondele, J. 
 WILEY INTERDISCIPLINARY REVIEWS-COMPUTATIONAL MOLECULAR SCIENCE, 4 (1), 15-25 (2014). 
 CP2K: atomistic simulations of condensed matter systems.
 http://dx.doi.org/10.1002/wcms.1159


 Grimme, S; Ehrlich, S; Goerigk, L. 
 JOURNAL OF COMPUTATIONAL CHEMISTRY, 32, 1456 (2011). 
 Effect of the damping function in dispersion corrected density functional theory.
 http://dx.doi.org/10.1002/jcc.21759


 Grimme, S; Antony, J; Ehrlich, S; Krieg, H. 
 JOURNAL OF CHEMICAL PHYSICS, 132 (15), 154104 (2010). 
 A consistent and accurate ab initio parametrization of density
 functional dispersion correction (DFT-D) for the 94 elements H-Pu.
 http://dx.doi.org/10.1063/1.3382344


 VandeVondele, J; Hutter, J. 
 JOURNAL OF CHEMICAL PHYSICS, 127 (11), 114105 (2007). 
 Gaussian basis sets for accurate calculations on molecular systems in
 gas and condensed phases.
 http://dx.doi.org/10.1063/1.2770708


 Bussi, G; Donadio, D; Parrinello, M. 
 JOURNAL OF CHEMICAL PHYSICS, 126 (1), 014101 (2007). 
 Canonical sampling through velocity rescaling.
 http://dx.doi.org/10.1063/1.2408420


 Krack, M. 
 THEORETICAL CHEMISTRY ACCOUNTS, 114 (1-3), 145-152 (2005). 
 Pseudopotentials for H to Kr optimized for gradient-corrected
 exchange-correlation functionals.
 http://dx.doi.org/10.1007/s00214-005-0655-y


 VandeVondele, J; Krack, M; Mohamed, F; Parrinello, M; Chassaing, T;
 Hutter, J. COMPUTER PHYSICS COMMUNICATIONS, 167 (2), 103-128 (2005). 
 QUICKSTEP: Fast and accurate density functional calculations using a
 mixed Gaussian and plane waves approach.
 http://dx.doi.org/10.1016/j.cpc.2004.12.014


 Frigo, M; Johnson, SG. 
 PROCEEDINGS OF THE IEEE, 93 (2), 216-231 (2005). 
 The design and implementation of FFTW3.
 http://dx.doi.org/10.1109/JPROC.2004.840301


 Kolafa, J. 
 JOURNAL OF COMPUTATIONAL CHEMISTRY, 25 (3), 335-342 (2004). 
 Time-reversible always stable predictor-corrector method for molecular dynamics of polarizable molecules.
 http://dx.doi.org/10.1002/jcc.10385


 VandeVondele, J; Hutter, J. 
 JOURNAL OF CHEMICAL PHYSICS, 118 (10), 4365-4369 (2003). 
 An efficient orbital transformation method for electronic structure
 calculations.
 http://dx.doi.org/10.1063/1.1543154


 Hartwigsen, C; Goedecker, S; Hutter, J. 
 PHYSICAL REVIEW B, 58 (7), 3641-3662 (1998). 
 Relativistic separable dual-space Gaussian pseudopotentials from H to Rn.
 http://dx.doi.org/10.1103/PhysRevB.58.3641


 Lippert, G; Hutter, J; Parrinello, M. 
 MOLECULAR PHYSICS, 92 (3), 477-487 (1997). 
 A hybrid Gaussian and plane wave density functional scheme.
 http://dx.doi.org/10.1080/002689797170220


 Perdew, JP; Burke, K; Ernzerhof, M. 
 PHYSICAL REVIEW LETTERS, 77 (18), 3865-3868 (1996). 
 Generalized gradient approximation made simple.
 http://dx.doi.org/10.1103/PhysRevLett.77.3865


 Goedecker, S; Teter, M; Hutter, J. 
 PHYSICAL REVIEW B, 54 (3), 1703-1710 (1996). 
 Separable dual-space Gaussian pseudopotentials.
 http://dx.doi.org/10.1103/PhysRevB.54.1703


 -------------------------------------------------------------------------------
 -                                                                             -
 -                                T I M I N G                                  -
 -                                                                             -
 -------------------------------------------------------------------------------
 SUBROUTINE                       CALLS  ASD         SELF TIME        TOTAL TIME
                                MAXIMUM       AVERAGE  MAXIMUM  AVERAGE  MAXIMUM
 CP2K                                 1  1.0    0.009    0.009    5.074    5.074
 qs_mol_dyn_low                       1  2.0    0.003    0.003    4.895    4.895
 qs_forces                            3  3.7    0.000    0.000    4.876    4.876
 velocity_verlet                      2  3.0    0.001    0.001    4.382    4.382
 qs_energies                          3  4.7    0.000    0.000    4.245    4.245
 scf_env_do_scf                       3  5.7    0.000    0.000    3.642    3.642
 rebuild_ks_matrix                   20  8.4    0.000    0.000    3.327    3.327
 qs_ks_build_kohn_sham_matrix        20  9.4    0.002    0.002    3.327    3.327
 scf_env_do_scf_inner_loop           17  6.9    0.002    0.002    3.144    3.144
 qs_ks_update_qs_env                 20  7.9    0.000    0.000    2.763    2.763
 qs_vxc_create                       20 10.4    0.000    0.000    2.098    2.098
 xc_vxc_pw_create                    20 11.4    0.127    0.127    2.097    2.097
 xc_rho_set_and_dset_create          20 12.4    0.017    0.017    1.496    1.496
 pw_transfer                        383 12.2    0.001    0.001    1.269    1.269
 fft_wrap_pw1pw2                    343 13.3    0.004    0.004    1.256    1.256
 fft_wrap_pw1pw2_150                223 14.3    0.056    0.056    1.205    1.205
 xc_functional_eval                  20 13.4    0.000    0.000    1.085    1.085
 pbe_lda_eval                        20 14.4    1.085    1.085    1.085    1.085
 sum_up_and_integrate                20 10.4    0.004    0.004    1.015    1.015
 integrate_v_rspace                  20 11.4    0.876    0.876    1.011    1.011
 fft3d_s                            344 15.2    0.828    0.828    0.841    0.841
 qs_rho_update_rho                   20  8.0    0.000    0.000    0.787    0.787
 calculate_rho_elec                  20  9.0    0.515    0.515    0.787    0.787
 qs_ks_update_qs_env_forces           3  4.7    0.000    0.000    0.564    0.564
 dbcsr_multiply_generic            1261 11.4    0.045    0.045    0.538    0.538
 init_scf_loop                        3  6.7    0.000    0.000    0.497    0.497
 scf_post_calculation_gpw             3  5.7    0.000    0.000    0.399    0.399
 make_lumo                            1  7.0    0.000    0.000    0.397    0.397
 ot_eigensolver                       1  8.0    0.001    0.001    0.396    0.396
 ot_mini                             80  9.4    0.000    0.000    0.310    0.310
 qs_ot_get_derivative                49 10.7    0.000    0.000    0.285    0.285
 density_rs2pw                       20 10.0    0.001    0.001    0.269    0.269
 make_m2s                          2522 12.4    0.032    0.032    0.243    0.243
 pw_gather_s                        163 14.8    0.186    0.186    0.186    0.186
 qs_scf_new_mos                      17  7.9    0.000    0.000    0.182    0.182
 qs_scf_loop_do_ot                   17  8.9    0.000    0.000    0.182    0.182
 ot_scf_mini                         17  9.9    0.001    0.001    0.173    0.173
 pw_scatter_s                       180 15.7    0.167    0.167    0.167    0.167
 qs_init_subsys                       1  2.0    0.001    0.001    0.142    0.142
 qs_ot_get_p                         85  9.4    0.000    0.000    0.135    0.135
 potential_pw2rs                     20 12.4    0.001    0.001    0.132    0.132
 make_images                       2522 13.4    0.035    0.035    0.131    0.131
 qs_ot_get_derivative_taylor         30 12.1    0.001    0.001    0.130    0.130
 init_scf_run                         3  5.7    0.000    0.000    0.123    0.123
 scf_env_initial_rho_setup            3  6.7    0.000    0.000    0.123    0.123
 multiply_cannon                   1261 12.4    0.027    0.027    0.113    0.113
 -------------------------------------------------------------------------------

 The number of warnings for this run is : 0
 
 -------------------------------------------------------------------------------
  **** **** ******  **  PROGRAM ENDED AT                 2020-11-20 23:42:45.359
 ***** ** ***  *** **   PROGRAM RAN ON                             B126028.local
 **    ****   ******    PROGRAM RAN BY                                   leopold
 ***** **    ** ** **   PROGRAM PROCESS ID                                 90656
  **** **  *******  **  PROGRAM STOPPED IN /private/var/folders/8y/7c7qkxcx5vxb7
                                           49rt3sw5sh40000gp/T/tmp_jwlsj3b/87/a5
                                           /21c4-dab9-4d0b-b696-b22f3f233845
