#     Step Nr.          Time[fs]        Kin.[a.u.]          Temp[K]            Pot.[a.u.]        Cons Qty[a.u.]        UsedTime[s]
         0            0.000000         0.002850134       300.000000000       -17.206336220       -17.203486087         0.000000000
         1            1.000000         0.001972756       207.648735262       -17.205735181       -17.203413719         2.544445992
         2            2.000000         0.001083830       114.081998447       -17.204912516       -17.203340800         2.341670990
