 DBCSR| CPU Multiplication driver                                           BLAS
 DBCSR| Multrec recursion limit                                              512
 DBCSR| Multiplication stack size                                           1000
 DBCSR| Maximum elements for images                                    UNLIMITED
 DBCSR| Multiplicative factor virtual images                                   1
 DBCSR| Use multiplication densification                                       T
 DBCSR| Multiplication size stacks                                             3


  **** **** ******  **  PROGRAM STARTED AT               2021-01-13 14:34:44.067
 ***** ** ***  *** **   PROGRAM STARTED ON                         B126028.local
 **    ****   ******    PROGRAM STARTED BY                               leopold
 ***** **    ** ** **   PROGRAM PROCESS ID                                 57239
  **** **  *******  **  PROGRAM STARTED IN /private/var/folders/8y/7c7qkxcx5vxb7
                                           49rt3sw5sh40000gp/T/tmpempsb0kn/3a/84
                                           /1068-282a-4ec7-8244-d23f0142d270

 CP2K| version string:                                          CP2K version 7.1
 CP2K| source code revision number:                                  git:e635599
 CP2K| cp2kflags: omp no_statm_access accelerate                                
 CP2K| is freely available from                            https://www.cp2k.org/
 CP2K| Program compiled at                          Thu Dec 24 12:31:26 UTC 2020
 CP2K| Program compiled on                               Mac-1608811933078.local
 CP2K| Program compiled for                                  Darwin-x86-64-conda
 CP2K| Data directory path    /Users/runner/miniforge3/conda-bld/cp2k_1608812708
 CP2K| Input file name                                                 aiida.inp

 GLOBAL| Force Environment number                                              1
 GLOBAL| Basis set file name                                        BASIS_MOLOPT
 GLOBAL| Potential file name                                      GTH_POTENTIALS
 GLOBAL| MM Potential file name                                     MM_POTENTIAL
 GLOBAL| Coordinate file name                                   aiida.coords.xyz
 GLOBAL| Method name                                                        CP2K
 GLOBAL| Project name                                                      aiida
 GLOBAL| Preferred FFT library                                             FFTW3
 GLOBAL| Preferred diagonalization lib.                                       SL
 GLOBAL| Run type                                                        GEO_OPT
 GLOBAL| All-to-all communication in single precision                          F
 GLOBAL| FFTs using library dependent lengths                                  F
 GLOBAL| Global print level                                               MEDIUM
 GLOBAL| MPI I/O enabled                                                       T
 GLOBAL| Total number of message passing processes                             1
 GLOBAL| Number of threads for this process                                    2
 GLOBAL| This output is from process                                           0
 GLOBAL| CPU model name                                                  UNKNOWN

 MEMORY| system memory details [Kb]
 MEMORY|                        rank 0           min           max       average
 MEMORY| MemTotal                    0             0             0             0
 MEMORY| MemFree                     0             0             0             0
 MEMORY| Buffers                     0             0             0             0
 MEMORY| Cached                      0             0             0             0
 MEMORY| Slab                        0             0             0             0
 MEMORY| SReclaimable                0             0             0             0
 MEMORY| MemLikelyFree               0             0             0             0

 WARNING : FFT library FFTW3 is not available  Trying FFTSG as a default

 *** Fundamental physical constants (SI units) ***

 *** Literature: B. J. Mohr and B. N. Taylor,
 ***             CODATA recommended values of the fundamental physical
 ***             constants: 2006, Web Version 5.1
 ***             http://physics.nist.gov/constants

 Speed of light in vacuum [m/s]                             2.99792458000000E+08
 Magnetic constant or permeability of vacuum [N/A**2]       1.25663706143592E-06
 Electric constant or permittivity of vacuum [F/m]          8.85418781762039E-12
 Planck constant (h) [J*s]                                  6.62606896000000E-34
 Planck constant (h-bar) [J*s]                              1.05457162825177E-34
 Elementary charge [C]                                      1.60217648700000E-19
 Electron mass [kg]                                         9.10938215000000E-31
 Electron g factor [ ]                                     -2.00231930436220E+00
 Proton mass [kg]                                           1.67262163700000E-27
 Fine-structure constant                                    7.29735253760000E-03
 Rydberg constant [1/m]                                     1.09737315685270E+07
 Avogadro constant [1/mol]                                  6.02214179000000E+23
 Boltzmann constant [J/K]                                   1.38065040000000E-23
 Atomic mass unit [kg]                                      1.66053878200000E-27
 Bohr radius [m]                                            5.29177208590000E-11

 *** Conversion factors ***

 [u] -> [a.u.]                                              1.82288848426455E+03
 [Angstrom] -> [Bohr] = [a.u.]                              1.88972613288564E+00
 [a.u.] = [Bohr] -> [Angstrom]                              5.29177208590000E-01
 [a.u.] -> [s]                                              2.41888432650478E-17
 [a.u.] -> [fs]                                             2.41888432650478E-02
 [a.u.] -> [J]                                              4.35974393937059E-18
 [a.u.] -> [N]                                              8.23872205491840E-08
 [a.u.] -> [K]                                              3.15774647902944E+05
 [a.u.] -> [kJ/mol]                                         2.62549961709828E+03
 [a.u.] -> [kcal/mol]                                       6.27509468713739E+02
 [a.u.] -> [Pa]                                             2.94210107994716E+13
 [a.u.] -> [bar]                                            2.94210107994716E+08
 [a.u.] -> [atm]                                            2.90362800883016E+08
 [a.u.] -> [eV]                                             2.72113838565563E+01
 [a.u.] -> [Hz]                                             6.57968392072181E+15
 [a.u.] -> [1/cm] (wave numbers)                            2.19474631370540E+05
 [a.u./Bohr**2] -> [1/cm]                                   5.14048714338585E+03
 

 CELL_TOP| Volume [angstrom^3]:                                           66.409
 CELL_TOP| Vector a [angstrom     4.050     0.000     0.000    |a| =       4.050
 CELL_TOP| Vector b [angstrom     0.000     4.050     0.000    |b| =       4.050
 CELL_TOP| Vector c [angstrom     0.000     0.000     4.050    |c| =       4.050
 CELL_TOP| Angle (b,c), alpha [degree]:                                   90.000
 CELL_TOP| Angle (a,c), beta  [degree]:                                   90.000
 CELL_TOP| Angle (a,b), gamma [degree]:                                   90.000
 CELL_TOP| Numerically orthorhombic:                                         YES

 GENERATE|  Preliminary Number of Bonds generated:                             0
 GENERATE|  Achieved consistency in connectivity generation.

 CELL| Volume [angstrom^3]:                                               66.409
 CELL| Vector a [angstrom]:       4.050     0.000     0.000    |a| =       4.050
 CELL| Vector b [angstrom]:       0.000     4.050     0.000    |b| =       4.050
 CELL| Vector c [angstrom]:       0.000     0.000     4.050    |c| =       4.050
 CELL| Angle (b,c), alpha [degree]:                                       90.000
 CELL| Angle (a,c), beta  [degree]:                                       90.000
 CELL| Angle (a,b), gamma [degree]:                                       90.000
 CELL| Numerically orthorhombic:                                             YES

 CELL_REF| Volume [angstrom^3]:                                           66.409
 CELL_REF| Vector a [angstrom     4.050     0.000     0.000    |a| =       4.050
 CELL_REF| Vector b [angstrom     0.000     4.050     0.000    |b| =       4.050
 CELL_REF| Vector c [angstrom     0.000     0.000     4.050    |c| =       4.050
 CELL_REF| Angle (b,c), alpha [degree]:                                   90.000
 CELL_REF| Angle (a,c), beta  [degree]:                                   90.000
 CELL_REF| Angle (a,b), gamma [degree]:                                   90.000
 CELL_REF| Numerically orthorhombic:                                         YES

 *******************************************************************************
 *******************************************************************************
 **                                                                           **
 **     #####                         ##              ##                      **
 **    ##   ##            ##          ##              ##                      **
 **   ##     ##                       ##            ######                    **
 **   ##     ##  ##   ##  ##   #####  ##  ##   ####   ##    #####    #####    **
 **   ##     ##  ##   ##  ##  ##      ## ##   ##      ##   ##   ##  ##   ##   **
 **   ##  ## ##  ##   ##  ##  ##      ####     ###    ##   ######   ######    **
 **    ##  ###   ##   ##  ##  ##      ## ##      ##   ##   ##       ##        **
 **     #######   #####   ##   #####  ##  ##  ####    ##    #####   ##        **
 **           ##                                                    ##        **
 **                                                                           **
 **                                                ... make the atoms dance   **
 **                                                                           **
 **            Copyright (C) by CP2K developers group (2000 - 2019)           **
 **                                                                           **
 *******************************************************************************

 DFT| Spin restricted Kohn-Sham (RKS) calculation                            RKS
 DFT| Multiplicity                                                             1
 DFT| Number of spin states                                                    1
 DFT| Charge                                                                   0
 DFT| Self-interaction correction (SIC)                                       NO
 DFT| Cutoffs: density                                              1.000000E-10
 DFT|          gradient                                             1.000000E-10
 DFT|          tau                                                  1.000000E-10
 DFT|          cutoff_smoothing_range                               0.000000E+00
 DFT| XC density smoothing                                                  NONE
 DFT| XC derivatives                                                          PW
 FUNCTIONAL| ROUTINE=NEW
 FUNCTIONAL| PBE:
 FUNCTIONAL| J.P.Perdew, K.Burke, M.Ernzerhof, Phys. Rev. Letter, vol. 77, n 18,
 FUNCTIONAL|  pp. 3865-3868, (1996){spin unpolarized}                           
 vdW POTENTIAL|                                                   Pair Potential
 vdW POTENTIAL|          DFT-D3 (Version 3.1)
 vdW POTENTIAL|          Potential Form: S. Grimme et al, JCP 132: 154104 (2010)
 vdW POTENTIAL|          BJ Damping: S. Grimme et al, JCC 32: 1456 (2011)
 vdW POTENTIAL|          Cutoff Radius [Bohr]:                             20.00
 vdW POTENTIAL|          s6 Scaling Factor:                               1.0000
 vdW POTENTIAL|          a1 Damping Factor:                               0.4289
 vdW POTENTIAL|          s8 Scaling Factor:                               0.7875
 vdW POTENTIAL|          a2 Damping Factor:                               4.4407
 vdW POTENTIAL|          Cutoff for CN calculation:                   0.1000E-05

 QS| Method:                                                                 GPW
 QS| Density plane wave grid type                        NON-SPHERICAL FULLSPACE
 QS| Number of grid levels:                                                    4
 QS| Density cutoff [a.u.]:                                                125.0
 QS| Multi grid cutoff [a.u.]: 1) grid level                               125.0
 QS|                           2) grid level                                41.7
 QS|                           3) grid level                                13.9
 QS|                           4) grid level                                 4.6
 QS| Grid level progression factor:                                          3.0
 QS| Relative density cutoff [a.u.]:                                        15.0
 QS| Consistent realspace mapping and integration 
 QS| Interaction thresholds: eps_pgf_orb:                                1.0E-05
 QS|                         eps_filter_matrix:                          0.0E+00
 QS|                         eps_core_charge:                            1.0E-12
 QS|                         eps_rho_gspace:                             1.0E-10
 QS|                         eps_rho_rspace:                             1.0E-10
 QS|                         eps_gvg_rspace:                             1.0E-05
 QS|                         eps_ppl:                                    1.0E-02
 QS|                         eps_ppnl:                                   1.0E-07


 ATOMIC KIND INFORMATION

  1. Atomic kind: Al                                    Number of atoms:       4

     Orbital Basis Set                                     DZVP-MOLOPT-SR-GTH-q3

       Number of orbital shell sets:                                           1
       Number of orbital shells:                                               5
       Number of primitive Cartesian functions:                                4
       Number of Cartesian basis functions:                                   14
       Number of spherical basis functions:                                   13
       Norm type:                                                              2

       Normalised Cartesian orbitals:

                        Set   Shell   Orbital            Exponent    Coefficient

                          1       1    2s                1.212902       0.147703
                                                         0.454181       0.176942
                                                         0.242419      -0.255412
                                                         0.078268      -0.047918

                          1       2    3s                1.212902      -0.205401
                                                         0.454181      -0.282784
                                                         0.242419       0.451246
                                                         0.078268      -0.188270

                          1       3    3px               1.212902       0.054477
                                                         0.454181       0.028713
                                                         0.242419      -0.164201
                                                         0.078268      -0.027375
                          1       3    3py               1.212902       0.054477
                                                         0.454181       0.028713
                                                         0.242419      -0.164201
                                                         0.078268      -0.027375
                          1       3    3pz               1.212902       0.054477
                                                         0.454181       0.028713
                                                         0.242419      -0.164201
                                                         0.078268      -0.027375

                          1       4    4px               1.212902      -0.161995
                                                         0.454181       0.034524
                                                         0.242419       0.284421
                                                         0.078268      -0.077718
                          1       4    4py               1.212902      -0.161995
                                                         0.454181       0.034524
                                                         0.242419       0.284421
                                                         0.078268      -0.077718
                          1       4    4pz               1.212902      -0.161995
                                                         0.454181       0.034524
                                                         0.242419       0.284421
                                                         0.078268      -0.077718

                          1       5    4dx2              1.212902       0.283929
                                                         0.454181       0.086552
                                                         0.242419       0.083045
                                                         0.078268       0.004803
                          1       5    4dxy              1.212902       0.491779
                                                         0.454181       0.149912
                                                         0.242419       0.143839
                                                         0.078268       0.008319
                          1       5    4dxz              1.212902       0.491779
                                                         0.454181       0.149912
                                                         0.242419       0.143839
                                                         0.078268       0.008319
                          1       5    4dy2              1.212902       0.283929
                                                         0.454181       0.086552
                                                         0.242419       0.083045
                                                         0.078268       0.004803
                          1       5    4dyz              1.212902       0.491779
                                                         0.454181       0.149912
                                                         0.242419       0.143839
                                                         0.078268       0.008319
                          1       5    4dz2              1.212902       0.283929
                                                         0.454181       0.086552
                                                         0.242419       0.083045
                                                         0.078268       0.004803

     GTH Potential information for                                    GTH-PBE-q3

       Description:                       Goedecker-Teter-Hutter pseudopotential
                                           Goedecker et al., PRB 54, 1703 (1996)
                                          Hartwigsen et al., PRB 58, 3641 (1998)
                                                      Krack, TCA 114, 145 (2005)

       Gaussian exponent of the core charge distribution:               2.469136
       Electronic configuration (s p d ...):                               2   1

       Parameters of the local part of the GTH pseudopotential:

                          rloc        C1          C2          C3          C4
                        0.450000   -7.554761

       Parameters of the non-local part of the GTH pseudopotential:

                   l      r(l)      h(i,j,l)

                   0    0.487435    6.959938   -1.888836
                                   -1.888836    2.438477
                   1    0.562189    1.865299


 MOLECULE KIND INFORMATION


 All atoms are their own molecule, skipping detailed information


 TOTAL NUMBERS AND MAXIMUM NUMBERS

  Total number of            - Atomic kinds:                                   1
                             - Atoms:                                          4
                             - Shell sets:                                     4
                             - Shells:                                        20
                             - Primitive Cartesian functions:                 16
                             - Cartesian basis functions:                     56
                             - Spherical basis functions:                     52

  Maximum angular momentum of- Orbital basis functions:                        2
                             - Local part of the GTH pseudopotential:          0
                             - Non-local part of the GTH pseudopotential:      2


 MODULE QUICKSTEP:  ATOMIC COORDINATES IN angstrom

  Atom  Kind  Element       X           Y           Z          Z(eff)       Mass

       1     1 Al  13    0.000000    0.000000    0.000000      3.00      26.9815
       2     1 Al  13    0.000000    2.024790    2.024790      3.00      26.9815
       3     1 Al  13    2.024790    0.000000    2.024790      3.00      26.9815
       4     1 Al  13    2.024790    2.024790    0.000000      3.00      26.9815




 SCF PARAMETERS         Density guess:                                    ATOMIC
                        --------------------------------------------------------
                        max_scf:                                              50
                        max_scf_history:                                       0
                        max_diis:                                              4
                        --------------------------------------------------------
                        eps_scf:                                        1.00E-07
                        eps_scf_history:                                0.00E+00
                        eps_diis:                                       1.00E-01
                        eps_eigval:                                     1.00E-05
                        --------------------------------------------------------
                        level_shift [a.u.]:                                 0.00
                        --------------------------------------------------------
                        Outer loop SCF in use 
                        No variables optimised in outer loop
                        eps_scf                                         1.00E-07
                        max_scf                                                5
                        No outer loop optimization
                        step_size                                       5.00E-01

 PW_GRID| Information for grid number                                          1
 PW_GRID| Cutoff [a.u.]                                                    125.0
 PW_GRID| spherical cutoff:                                                   NO
 PW_GRID|   Bounds   1            -20      19                Points:          40
 PW_GRID|   Bounds   2            -20      19                Points:          40
 PW_GRID|   Bounds   3            -20      19                Points:          40
 PW_GRID| Volume element (a.u.^3)  0.7002E-02     Volume (a.u.^3)       448.1533
 PW_GRID| Grid span                                                    FULLSPACE

 PW_GRID| Information for grid number                                          2
 PW_GRID| Number of the reference grid                                         1
 PW_GRID| Cutoff [a.u.]                                                     41.7
 PW_GRID| spherical cutoff:                                                   NO
 PW_GRID|   Bounds   1            -12      11                Points:          24
 PW_GRID|   Bounds   2            -12      11                Points:          24
 PW_GRID|   Bounds   3            -12      11                Points:          24
 PW_GRID| Volume element (a.u.^3)  0.3242E-01     Volume (a.u.^3)       448.1533
 PW_GRID| Grid span                                                    FULLSPACE

 PW_GRID| Information for grid number                                          3
 PW_GRID| Number of the reference grid                                         1
 PW_GRID| Cutoff [a.u.]                                                     13.9
 PW_GRID| spherical cutoff:                                                   NO
 PW_GRID|   Bounds   1             -7       7                Points:          15
 PW_GRID|   Bounds   2             -7       7                Points:          15
 PW_GRID|   Bounds   3             -7       7                Points:          15
 PW_GRID| Volume element (a.u.^3)  0.1328         Volume (a.u.^3)       448.1533
 PW_GRID| Grid span                                                    FULLSPACE

 PW_GRID| Information for grid number                                          4
 PW_GRID| Number of the reference grid                                         1
 PW_GRID| Cutoff [a.u.]                                                      4.6
 PW_GRID| spherical cutoff:                                                   NO
 PW_GRID|   Bounds   1             -4       3                Points:           8
 PW_GRID|   Bounds   2             -4       3                Points:           8
 PW_GRID|   Bounds   3             -4       3                Points:           8
 PW_GRID| Volume element (a.u.^3)  0.8753         Volume (a.u.^3)       448.1533
 PW_GRID| Grid span                                                    FULLSPACE

 POISSON| Solver                                                        PERIODIC
 POISSON| Periodicity                                                        XYZ

 RS_GRID| Information for grid number                                          1
 RS_GRID|   Bounds   1            -20      19                Points:          40
 RS_GRID|   Bounds   2            -20      19                Points:          40
 RS_GRID|   Bounds   3            -20      19                Points:          40

 RS_GRID| Information for grid number                                          2
 RS_GRID|   Bounds   1            -12      11                Points:          24
 RS_GRID|   Bounds   2            -12      11                Points:          24
 RS_GRID|   Bounds   3            -12      11                Points:          24

 RS_GRID| Information for grid number                                          3
 RS_GRID|   Bounds   1             -7       7                Points:          15
 RS_GRID|   Bounds   2             -7       7                Points:          15
 RS_GRID|   Bounds   3             -7       7                Points:          15

 RS_GRID| Information for grid number                                          4
 RS_GRID|   Bounds   1             -4       3                Points:           8
 RS_GRID|   Bounds   2             -4       3                Points:           8
 RS_GRID|   Bounds   3             -4       3                Points:           8

 BFGS| Use rational function optimization for step estimation:                NO
 BFGS| Use model Hessian for initial guess:                                  YES
 BFGS| Restart Hessian:                                                       NO
 BFGS| Trust radius:                                                       0.472

 *******************************************************************************
 ***                     STARTING GEOMETRY OPTIMIZATION                      ***
 ***                                   BFGS                                  ***
 *******************************************************************************

 Number of electrons:                                                         12
 Number of occupied orbitals:                                                  6
 Number of molecular orbitals:                                                 6

 Number of orbital functions:                                                 52
 Number of independent orbital functions:                                     52

 Extrapolation method: initial_guess

 Atomic guess: The first density matrix is obtained in terms of atomic orbitals
               and electronic configurations assigned to each atomic kind

 Guess for atomic kind: Al

 Electronic structure
    Total number of core electrons                                         10.00
    Total number of valence electrons                                       3.00
    Total number of electrons                                              13.00
    Multiplicity                                                   not specified
    S   [  2.00  2.00] 2.00
    P   [  6.00] 1.00


 *******************************************************************************
                  Iteration          Convergence                     Energy [au]
 *******************************************************************************
                          1        0.300979E-01                  -1.867959563530
                          2        0.518573E-02                  -1.869422436654
                          3        0.651070E-05                  -1.869464644587
                          4        0.838740E-07                  -1.869464644622

 Energy components [Hartree]           Total Energy ::           -1.869464644622
                                        Band Energy ::           -0.564757248646
                                     Kinetic Energy ::            0.687655804116
                                   Potential Energy ::           -2.557120448738
                                      Virial (-V/T) ::            3.718605199623
                                        Core Energy ::           -2.751812585339
                                          XC Energy ::           -0.604467778935
                                     Coulomb Energy ::            1.486815719651
                       Total Pseudopotential Energy ::           -3.485380781804
                       Local Pseudopotential Energy ::           -3.954675776672
                    Nonlocal Pseudopotential Energy ::            0.469294994868
                                        Confinement ::            0.459123923494

 Orbital energies  State     L     Occupation   Energy[a.u.]          Energy[eV]

                       1     0          2.000      -0.251672           -6.848355

                       1     1          1.000      -0.061412           -1.671116


 Total Electron Density at R=0:                                         0.000141
 Re-scaling the density matrix to get the right number of electrons
                  # Electrons              Trace(P)               Scaling factor
                           12                13.704                        0.876


 SCF WAVEFUNCTION OPTIMIZATION

  ----------------------------------- OT ---------------------------------------
  Minimizer      : DIIS                : direct inversion
                                         in the iterative subspace
                                         using   7 DIIS vectors
                                         safer DIIS on
  Preconditioner : FULL_ALL            : diagonalization, state selective
  Precond_solver : DEFAULT
  stepsize       :    0.15000000                  energy_gap     :    0.08000000
  eps_taylor     :   0.10000E-15                  max_taylor     :             4
  ----------------------------------- OT ---------------------------------------

  Step     Update method      Time    Convergence         Total energy    Change
  ------------------------------------------------------------------------------
     1 OT DIIS     0.15E+00    0.4     0.15126032        -7.4977055184 -7.50E+00
     2 OT DIIS     0.15E+00    0.6     0.12005390        -7.8659378764 -3.68E-01
     3 OT DIIS     0.15E+00    0.6     0.05498181        -8.0172884717 -1.51E-01
     4 OT DIIS     0.15E+00    0.6     0.02044287        -8.0549043702 -3.76E-02
     5 OT DIIS     0.15E+00    0.6     0.01051810        -8.0629423208 -8.04E-03
     6 OT DIIS     0.15E+00    0.4     0.00831552        -8.0662781108 -3.34E-03
     7 OT DIIS     0.15E+00    0.4     0.00562065        -8.0687417973 -2.46E-03
     8 OT DIIS     0.15E+00    0.5     0.00480764        -8.0704005174 -1.66E-03
     9 OT DIIS     0.15E+00    0.5     0.00437986        -8.0716287527 -1.23E-03
    10 OT DIIS     0.15E+00    0.4     0.00372917        -8.0731235752 -1.49E-03
    11 OT DIIS     0.15E+00    0.4     0.00227883        -8.0754021796 -2.28E-03
    12 OT DIIS     0.15E+00    0.4     0.00144387        -8.0757532353 -3.51E-04
    13 OT DIIS     0.15E+00    0.5     0.00085302        -8.0759815078 -2.28E-04
    14 OT DIIS     0.15E+00    0.5     0.00040141        -8.0760046097 -2.31E-05
    15 OT DIIS     0.15E+00    0.4     0.00026959        -8.0760076134 -3.00E-06
    16 OT DIIS     0.15E+00    0.4     0.00014929        -8.0760102985 -2.69E-06
    17 OT DIIS     0.15E+00    0.4     0.00010709        -8.0760111131 -8.15E-07
    18 OT DIIS     0.15E+00    0.5     0.00006719        -8.0760115804 -4.67E-07
    19 OT DIIS     0.15E+00    0.4     0.00003995        -8.0760117832 -2.03E-07
    20 OT DIIS     0.15E+00    0.4     0.00003209        -8.0760118889 -1.06E-07
    21 OT DIIS     0.15E+00    0.4     0.00002858        -8.0760119327 -4.38E-08
    22 OT DIIS     0.15E+00    0.5     0.00001778        -8.0760119910 -5.83E-08
    23 OT DIIS     0.15E+00    0.4     0.00001146        -8.0760120310 -4.00E-08
    24 OT DIIS     0.15E+00    0.4     0.00000785        -8.0760120404 -9.43E-09
    25 OT DIIS     0.15E+00    0.5     0.00000343        -8.0760120466 -6.25E-09
    26 OT DIIS     0.15E+00    0.4     0.00000227        -8.0760120473 -6.43E-10
    27 OT DIIS     0.15E+00    0.5     0.00000130        -8.0760120474 -1.13E-10
    28 OT DIIS     0.15E+00    0.4     0.00000071        -8.0760120474 -4.23E-11
    29 OT DIIS     0.15E+00    0.4     0.00000063        -8.0760120475 -1.22E-11
    30 OT DIIS     0.15E+00    0.4     0.00000049        -8.0760120475 -8.32E-12
    31 OT DIIS     0.15E+00    0.5     0.00000039        -8.0760120475 -1.23E-11
    32 OT DIIS     0.15E+00    0.4     0.00000030        -8.0760120475 -9.10E-12
    33 OT DIIS     0.15E+00    0.4     0.00000024        -8.0760120475 -6.62E-12
    34 OT DIIS     0.15E+00    0.4     0.00000020        -8.0760120475 -3.45E-12
    35 OT DIIS     0.15E+00    0.4     0.00000018        -8.0760120475 -2.23E-12
    36 OT DIIS     0.15E+00    0.5     0.00000013        -8.0760120475 -1.95E-12
    37 OT DIIS     0.15E+00    0.5     0.00000010        -8.0760120475 -1.68E-12
    38 OT DIIS     0.15E+00    0.4     0.00000007        -8.0760120475 -6.22E-13

  *** SCF run converged in    38 steps ***


  Electronic density on regular grids:        -12.0000000000        0.0000000000
  Core density on regular grids:               11.9999999970       -0.0000000030
  Total charge density on r-space grids:       -0.0000000030
  Total charge density g-space grids:          -0.0000000030

  Overlap energy of the core charge distribution:               0.00000000000000
  Self energy of the core charge distribution:                -22.56758334191025
  Core Hamiltonian energy:                                      5.03772594264451
  Hartree energy:                                              12.72096806908189
  Exchange-correlation energy:                                 -3.21817578547609
  Dispersion energy:                                           -0.04894693184602

  Total energy:                                                -8.07601204750596

  outer SCF iter =    1 RMS gradient =   0.73E-07 energy =         -8.0760120475
  outer SCF loop converged in   1 iterations or   38 steps


 ENERGY| Total FORCE_EVAL ( QS ) energy (a.u.):               -8.076012047506257


 --------  Informations at step =     0 ------------
  Optimization Method        =                 BFGS
  Total Energy               =        -8.0760120475
  Used time                  =               19.036
 ---------------------------------------------------

 --------------------------
 OPTIMIZATION STEP:      1
 --------------------------

 Number of electrons:                                                         12
 Number of occupied orbitals:                                                  6
 Number of molecular orbitals:                                                 6

 Number of orbital functions:                                                 52
 Number of independent orbital functions:                                     52

 Parameters for the always stable predictor-corrector (ASPC) method:

  ASPC order: 0

  B(1) =   1.000000

 Extrapolation method: ASPC


 SCF WAVEFUNCTION OPTIMIZATION

  ----------------------------------- OT ---------------------------------------
  Minimizer      : DIIS                : direct inversion
                                         in the iterative subspace
                                         using   7 DIIS vectors
                                         safer DIIS on
  Preconditioner : FULL_ALL            : diagonalization, state selective
  Precond_solver : DEFAULT
  stepsize       :    0.15000000                  energy_gap     :    0.08000000
  eps_taylor     :   0.10000E-15                  max_taylor     :             4
  ----------------------------------- OT ---------------------------------------

  Step     Update method      Time    Convergence         Total energy    Change
  ------------------------------------------------------------------------------
     1 OT DIIS     0.15E+00    0.3     0.00000005        -8.0760120475 -8.08E+00

  *** SCF run converged in     1 steps ***


  Electronic density on regular grids:        -12.0000000000        0.0000000000
  Core density on regular grids:               11.9999999970       -0.0000000030
  Total charge density on r-space grids:       -0.0000000030
  Total charge density g-space grids:          -0.0000000030

  Overlap energy of the core charge distribution:               0.00000000000000
  Self energy of the core charge distribution:                -22.56758334191025
  Core Hamiltonian energy:                                      5.03772592713288
  Hartree energy:                                              12.72096808204057
  Exchange-correlation energy:                                 -3.21817578292393
  Dispersion energy:                                           -0.04894693184602

  Total energy:                                                -8.07601204750676

  outer SCF iter =    1 RMS gradient =   0.46E-07 energy =         -8.0760120475
  outer SCF loop converged in   1 iterations or    1 steps


 ENERGY| Total FORCE_EVAL ( QS ) energy (a.u.):               -8.076012047506824


 --------  Informations at step =     1 ------------
  Optimization Method        =                 BFGS
  Total Energy               =        -8.0760120475
  Real energy change         =        -0.0000000000
  Predicted change in energy =        -0.0000000000
  Scaling factor             =         0.0000000000
  Step size                  =         0.0000003865
  Trust radius               =         0.4724315332
  Decrease in energy         =                  YES
  Used time                  =                1.840

  Convergence check :
  Max. step size             =         0.0000003865
  Conv. limit for step size  =         0.0030000000
  Convergence in step size   =                  YES
  RMS step size              =         0.0000001697
  Conv. limit for RMS step   =         0.0015000000
  Convergence in RMS step    =                  YES
  Max. gradient              =         0.0000000211
  Conv. limit for gradients  =         0.0004500000
  Conv. in gradients         =                  YES
  RMS gradient               =         0.0000000104
  Conv. limit for RMS grad.  =         0.0003000000
  Conv. in RMS gradients     =                  YES
 ---------------------------------------------------

 *******************************************************************************
 ***                    GEOMETRY OPTIMIZATION COMPLETED                      ***
 *******************************************************************************

                    Reevaluating energy at the minimum

 Number of electrons:                                                         12
 Number of occupied orbitals:                                                  6
 Number of molecular orbitals:                                                 6

 Number of orbital functions:                                                 52
 Number of independent orbital functions:                                     52

 Parameters for the always stable predictor-corrector (ASPC) method:

  ASPC order: 0

  B(1) =   2.000000
  B(2) =  -1.000000

 Extrapolation method: ASPC


 SCF WAVEFUNCTION OPTIMIZATION

  ----------------------------------- OT ---------------------------------------
  Minimizer      : DIIS                : direct inversion
                                         in the iterative subspace
                                         using   7 DIIS vectors
                                         safer DIIS on
  Preconditioner : FULL_ALL            : diagonalization, state selective
  Precond_solver : DEFAULT
  stepsize       :    0.15000000                  energy_gap     :    0.08000000
  eps_taylor     :   0.10000E-15                  max_taylor     :             4
  ----------------------------------- OT ---------------------------------------

  Step     Update method      Time    Convergence         Total energy    Change
  ------------------------------------------------------------------------------
     1 OT DIIS     0.15E+00    0.3     0.00000004        -8.0760120475 -8.08E+00

  *** SCF run converged in     1 steps ***


  Electronic density on regular grids:        -12.0000000000        0.0000000000
  Core density on regular grids:               11.9999999970       -0.0000000030
  Total charge density on r-space grids:       -0.0000000030
  Total charge density g-space grids:          -0.0000000030

  Overlap energy of the core charge distribution:               0.00000000000000
  Self energy of the core charge distribution:                -22.56758334191025
  Core Hamiltonian energy:                                      5.03772590587330
  Hartree energy:                                              12.72096810106469
  Exchange-correlation energy:                                 -3.21817578068854
  Dispersion energy:                                           -0.04894693184602

  Total energy:                                                -8.07601204750683

  outer SCF iter =    1 RMS gradient =   0.41E-07 energy =         -8.0760120475
  outer SCF loop converged in   1 iterations or    1 steps


 !-----------------------------------------------------------------------------!
                     Mulliken Population Analysis

 #  Atom  Element  Kind  Atomic population                           Net charge
       1     Al       1          2.999992                              0.000008
       2     Al       1          3.000003                             -0.000003
       3     Al       1          3.000002                             -0.000002
       4     Al       1          3.000003                             -0.000003
 # Total charge                             12.000000                 -0.000000

 !-----------------------------------------------------------------------------!
  
  Eigenvalues of the occupied subspace spin            1
 ---------------------------------------------
      -0.14958506      0.14979539      0.14979539      0.15185914
       0.19937083      0.19937086
 Fermi Energy [eV] :    5.425157
  
  Lowest Eigenvalues of the unoccupied subspace spin            1
 -----------------------------------------------------
  Reached convergence in           99  iterations 
       0.19723013
  
 HOMO - LUMO gap [eV] :   -0.058252

 ENERGY| Total FORCE_EVAL ( QS ) energy (a.u.):               -8.076012047506831


 -------------------------------------------------------------------------------
 -                                                                             -
 -                                DBCSR STATISTICS                             -
 -                                                                             -
 -------------------------------------------------------------------------------
 COUNTER                                    TOTAL       BLAS       SMM       ACC
 flops     6 x     1 x     6                  216     100.0%      0.0%      0.0%
 flops    13 x     1 x     6                  468     100.0%      0.0%      0.0%
 flops    39 x     1 x     6                 1404     100.0%      0.0%      0.0%
 flops     6 x     1 x    52                 1872     100.0%      0.0%      0.0%
 flops     7 x     1 x     7                 4900     100.0%      0.0%      0.0%
 flops    13 x     1 x     1                 7748     100.0%      0.0%      0.0%
 flops    13 x     1 x     7                 9100     100.0%      0.0%      0.0%
 flops     7 x     7 x    52                15288     100.0%      0.0%      0.0%
 flops    39 x     1 x     1                23244     100.0%      0.0%      0.0%
 flops    39 x     1 x     7                27300     100.0%      0.0%      0.0%
 flops     7 x     1 x    52                36400     100.0%      0.0%      0.0%
 flops     6 x     6 x     6               146016     100.0%      0.0%      0.0%
 flops    13 x     6 x     6               190008     100.0%      0.0%      0.0%
 flops    39 x     6 x     6               570024     100.0%      0.0%      0.0%
 flops     6 x     6 x    52               621504     100.0%      0.0%      0.0%
 flops    13 x     6 x    52               697632     100.0%      0.0%      0.0%
 flops    13 x    13 x     6               912600     100.0%      0.0%      0.0%
 flops    13 x     1 x    13              1092416     100.0%      0.0%      0.0%
 flops    39 x     6 x    52              2092896     100.0%      0.0%      0.0%
 flops    13 x     6 x    13              3471936     100.0%      0.0%      0.0%
 flops inhomo. stacks                       20774     100.0%      0.0%      0.0%
 flops total                         9.943746E+06     100.0%      0.0%      0.0%
 flops max/rank                      9.943746E+06     100.0%      0.0%      0.0%
 matmuls inhomo. stacks                       544     100.0%      0.0%      0.0%
 matmuls total                               7831     100.0%      0.0%      0.0%
 number of processed stacks                  3145     100.0%      0.0%      0.0%
 average stack size                                     2.5       0.0       0.0
 marketing flops                    10.503162E+06
 -------------------------------------------------------------------------------
 # multiplications                           2160
 max memory usage/rank               0.000000E+00
 # max total images/rank                        1
 # max 3D layers                                1
 # MPI messages exchanged                       0
 MPI messages size (bytes):
  total size                         0.000000E+00
  min size                           0.000000E+00
  max size                           0.000000E+00
  average size                       0.000000E+00
 MPI breakdown and total messages size (bytes):
             size <=      128                   0                        0
       128 < size <=     8192                   0                        0
      8192 < size <=    32768                   0                        0
     32768 < size <=   131072                   0                        0
    131072 < size <=  4194304                   0                        0
   4194304 < size <= 16777216                   0                        0
  16777216 < size                               0                        0
 -------------------------------------------------------------------------------

 MEMORY| Estimated peak process memory [MiB]                                   0

 -------------------------------------------------------------------------------
 ----                             MULTIGRID INFO                            ----
 -------------------------------------------------------------------------------
 count for grid        1:              0          cutoff [a.u.]          125.00
 count for grid        2:           4524          cutoff [a.u.]           41.67
 count for grid        3:          11884          cutoff [a.u.]           13.89
 count for grid        4:           4928          cutoff [a.u.]            4.63
 total gridlevel count  :          21336

 -------------------------------------------------------------------------------
 -                                                                             -
 -                           R E F E R E N C E S                               -
 -                                                                             -
 -------------------------------------------------------------------------------
 
 CP2K version 7.1, the CP2K developers group (2019).
 CP2K is freely available from https://www.cp2k.org/ .

 Schuett, Ole; Messmer, Peter; Hutter, Juerg; VandeVondele, Joost. 
 Electronic Structure Calculations on Graphics Processing Units, John
 Wiley & Sons, Ltd, 173-190 (2016). 
 GPU-Accelerated Sparse Matrix-Matrix Multiplication for
 Linear Scaling Density Functional Theory.
 https://dx.doi.org/10.1002/9781118670712.ch8

 Borstnik, U; VandeVondele, J; Weber, V; Hutter, J. 
 PARALLEL COMPUTING, 40 (5-6), 47-58 (2014). 
 Sparse matrix multiplication: The distributed block-compressed sparse
 row library.
 https://dx.doi.org/10.1016/j.parco.2014.03.012

 Hutter, J; Iannuzzi, M; Schiffmann, F; VandeVondele, J. 
 WIREs Comput Mol Sci., 4 (1), 15-25 (2014). 
 CP2K: atomistic simulations of condensed matter systems.
 https://dx.doi.org/10.1002/wcms.1159

 Grimme, S; Ehrlich, S; Goerigk, L. 
 JOURNAL OF COMPUTATIONAL CHEMISTRY, 32, 1456 (2011). 
 Effect of the damping function in dispersion corrected density functional theory.
 https://dx.doi.org/10.1002/jcc.21759

 Grimme, S; Antony, J; Ehrlich, S; Krieg, H. 
 JOURNAL OF CHEMICAL PHYSICS, 132 (15), 154104 (2010). 
 A consistent and accurate ab initio parametrization of density
 functional dispersion correction (DFT-D) for the 94 elements H-Pu.
 https://dx.doi.org/10.1063/1.3382344

 VandeVondele, J; Hutter, J. 
 JOURNAL OF CHEMICAL PHYSICS, 127 (11), 114105 (2007). 
 Gaussian basis sets for accurate calculations on molecular systems in
 gas and condensed phases.
 https://dx.doi.org/10.1063/1.2770708

 Krack, M. 
 THEORETICAL CHEMISTRY ACCOUNTS, 114 (1-3), 145-152 (2005). 
 Pseudopotentials for H to Kr optimized for gradient-corrected
 exchange-correlation functionals.
 https://dx.doi.org/10.1007/s00214-005-0655-y

 VandeVondele, J; Krack, M; Mohamed, F; Parrinello, M; Chassaing, T;
 Hutter, J. COMPUTER PHYSICS COMMUNICATIONS, 167 (2), 103-128 (2005). 
 QUICKSTEP: Fast and accurate density functional calculations using a
 mixed Gaussian and plane waves approach.
 https://dx.doi.org/10.1016/j.cpc.2004.12.014

 Frigo, M; Johnson, SG. 
 PROCEEDINGS OF THE IEEE, 93 (2), 216-231 (2005). 
 The design and implementation of FFTW3.
 https://dx.doi.org/10.1109/JPROC.2004.840301

 Kolafa, J. 
 JOURNAL OF COMPUTATIONAL CHEMISTRY, 25 (3), 335-342 (2004). 
 Time-reversible always stable predictor-corrector method for molecular dynamics of polarizable molecules.
 https://dx.doi.org/10.1002/jcc.10385

 VandeVondele, J; Hutter, J. 
 JOURNAL OF CHEMICAL PHYSICS, 118 (10), 4365-4369 (2003). 
 An efficient orbital transformation method for electronic structure
 calculations.
 https://dx.doi.org/10.1063/1.1543154

 Hartwigsen, C; Goedecker, S; Hutter, J. 
 PHYSICAL REVIEW B, 58 (7), 3641-3662 (1998). 
 Relativistic separable dual-space Gaussian pseudopotentials from H to Rn.
 https://dx.doi.org/10.1103/PhysRevB.58.3641

 Lippert, G; Hutter, J; Parrinello, M. 
 MOLECULAR PHYSICS, 92 (3), 477-487 (1997). 
 A hybrid Gaussian and plane wave density functional scheme.
 https://dx.doi.org/10.1080/002689797170220

 Perdew, JP; Burke, K; Ernzerhof, M. 
 PHYSICAL REVIEW LETTERS, 77 (18), 3865-3868 (1996). 
 Generalized gradient approximation made simple.
 https://dx.doi.org/10.1103/PhysRevLett.77.3865

 Goedecker, S; Teter, M; Hutter, J. 
 PHYSICAL REVIEW B, 54 (3), 1703-1710 (1996). 
 Separable dual-space Gaussian pseudopotentials.
 https://dx.doi.org/10.1103/PhysRevB.54.1703


 -------------------------------------------------------------------------------
 -                                                                             -
 -                                T I M I N G                                  -
 -                                                                             -
 -------------------------------------------------------------------------------
 SUBROUTINE                       CALLS  ASD         SELF TIME        TOTAL TIME
                                MAXIMUM       AVERAGE  MAXIMUM  AVERAGE  MAXIMUM
 CP2K                                 1  1.0    0.012    0.012   22.755   22.755
 cp_geo_opt                           1  2.0    0.000    0.000   22.581   22.581
 geoopt_bfgs                          1  3.0    0.001    0.001   22.581   22.581
 cp_eval_at                           3  4.0    0.000    0.000   22.576   22.576
 qs_forces                            2  5.0    0.000    0.000   20.875   20.875
 qs_energies                          3  5.7    0.000    0.000   20.621   20.621
 scf_env_do_scf                       3  6.7    0.000    0.000   18.403   18.403
 scf_env_do_scf_inner_loop           40  8.0    0.004    0.004   17.532   17.532
 rebuild_ks_matrix                   42  9.8    0.000    0.000   12.055   12.055
 qs_ks_build_kohn_sham_matrix        42 10.8    0.004    0.004   12.055   12.055
 qs_ks_update_qs_env                 43  9.0    0.000    0.000   10.907   10.907
 sum_up_and_integrate                42 11.8    0.005    0.005   10.632   10.632
 integrate_v_rspace                  42 12.8   10.529   10.529   10.627   10.627
 qs_rho_update_rho                   43  9.0    0.000    0.000    7.289    7.289
 calculate_rho_elec                  43 10.0    7.100    7.100    7.289    7.289
 dbcsr_multiply_generic            2160 12.2    0.097    0.097    1.450    1.450
 qs_vxc_create                       42 11.8    0.001    0.001    1.264    1.264
 xc_vxc_pw_create                    42 12.8    0.042    0.042    1.263    1.263
 qs_ks_update_qs_env_forces           2  6.0    0.000    0.000    1.150    1.150
 xc_rho_set_and_dset_create          42 13.8    0.011    0.011    0.954    0.954
 scf_post_calculation_gpw             3  6.7    0.000    0.000    0.908    0.908
 make_lumo                            1  7.0    0.000    0.000    0.906    0.906
 ot_eigensolver                       1  8.0    0.001    0.001    0.904    0.904
 init_scf_loop                        3  7.7    0.000    0.000    0.870    0.870
 ot_mini                            139  9.9    0.001    0.001    0.867    0.867
 build_core_hamiltonian_matrix_       2  6.0    0.000    0.000    0.804    0.804
 qs_ot_get_derivative                90 11.3    0.001    0.001    0.771    0.771
 qs_energies_init_hamiltonians        3  6.7    0.000    0.000    0.770    0.770
 xc_functional_eval                  42 14.8    0.000    0.000    0.740    0.740
 pbe_lda_eval                        42 15.8    0.740    0.740    0.740    0.740
 pw_transfer                        806 13.5    0.002    0.002    0.707    0.707
 fft_wrap_pw1pw2                    722 14.6    0.008    0.008    0.698    0.698
 qs_scf_new_mos                      40  9.0    0.000    0.000    0.685    0.685
 qs_scf_loop_do_ot                   40 10.0    0.000    0.000    0.685    0.685
 make_m2s                          4320 13.2    0.063    0.063    0.672    0.672
 fft_wrap_pw1pw2_130                467 15.6    0.039    0.039    0.653    0.653
 ot_scf_mini                         40 11.0    0.001    0.001    0.653    0.653
 init_scf_run                         3  6.7    0.000    0.000    0.536    0.536
 scf_env_initial_rho_setup            3  7.7    0.000    0.000    0.535    0.535
 build_core_ppl_forces                2  7.0    0.457    0.457    0.457    0.457
 -------------------------------------------------------------------------------

 The number of warnings for this run is : 0
 
 -------------------------------------------------------------------------------
  **** **** ******  **  PROGRAM ENDED AT                 2021-01-13 14:35:06.945
 ***** ** ***  *** **   PROGRAM RAN ON                             B126028.local
 **    ****   ******    PROGRAM RAN BY                                   leopold
 ***** **    ** ** **   PROGRAM PROCESS ID                                 57239
  **** **  *******  **  PROGRAM STOPPED IN /private/var/folders/8y/7c7qkxcx5vxb7
                                           49rt3sw5sh40000gp/T/tmpempsb0kn/3a/84
                                           /1068-282a-4ec7-8244-d23f0142d270
