Compiler and run-time data
===========================================================================
RASPA 2.0.37
Compiled as a 64-bits application
Compiler: gcc 9.3.0
Compile Date = Mar 18 2020, Compile Time = 13:46:53

Wed Nov 18 15:24:32 2020
Simulation started on Wednesday, November 18.
The start time was 03:24 PM.

Cpu data:    x86_64
Cpu Model:   MacBookPro11,4
Host name:   B126028.local
OS release:  19.6.0
OS type:     Darwin
OS version:  19H15


Simulation
===========================================================================
Dimensions: 3
Random number seed: 1605709472
RASPA directory set to: /Users/leopold/Personal/Programmierung/qm-codes/RASPA2/src/.libs
String appended to output-files: 
Number of cycles: 100
Number of initializing cycles: 100
Number of equilibration cycles: 0
Print every: 10
Triclinic boundary condition applied
Timestep: 0.000500
	Degrees of freedom:                        0
	Translational Degrees of freedom:          0
	Rotational Degrees of freedom:             0
	Degrees of freedom Framework:              0


Mutual consistent basic set of units:
======================================
Unit of temperature: Kelvin
Unit of length:      1e-10 [m]
Unit of time:        1e-12 [s]
Unit of mass:        1.66054e-27 [kg]
Unit of charge:      1.60218e-19 [C/particle]

Derived units and their conversion factors:
===========================================
Unit of energy:              1.66054e-23 [J]
Unit of force:               1.66054e-13 [N]
Unit of pressure:            1.66054e+07 [Pa]
Unit of velocity:            100 [m/s]
Unit of acceleration:        1e-08 [m^2/s]
Unit of diffusion:           1e-08 [m^2/s]
Unit of dipole moment:       1.60218e-29 [C.m]
Unit of electric potential:  0.000103643 [V]
Unit of electric field:      1.03643e+06 [V]
Unit of polarizability:      1.54587e-35 [-]
Unit of Coulomb potential:   167101.0800066561  [K]
Unit of dielectric constant: 0.0000154587       [s^2 C^2/(kg m^3)]
Unit of wave vectors:        5.3088374589       [cm^1]
Boltzmann constant:          0.8314464919       [-]

Internal conversion factors:
===========================================
Energy to Kelvin:                                    1.2027242847
FH correction factor                                 2.0211930949
Heat capacity conversion factor:                    10.0000088723
From Debye to internal units:                        4.8032067991
Isothermal compressibility conversion factor:        0.0000000602

Energy conversion factors:
===========================================
From mdyne/A to kcal/mol/A^2:           143.933
From mdyne/A to kj/mol/A^2:             602.214
From mdyne/A to K/A^2:                  72429.7
From mdyne A/rad^2 to kcal/mol/deg^2:   0.0438444


Properties computed
===========================================================================
Movies: no
Radial Distribution Function: no
Number of molecules GCMC histogram: no
Histogram of the molecule positions: no
Free energy profiles: no
Pore Size Distribution Function: no
End-to-end distance: no
Histogram of the energy of the system: no
Compute thermodynamic factors: no
Framework spacing histograms: no
Residence times histograms: no
Distance histograms: no
Bend Angle histograms: no
Dihedral angle histograms: no
Angle between planes histograms: no
Molecule properties: no
Infra-red spectra: no
Mean-squared displacement using modified order-N algorithm: no
Velocity-autocorrelation function modified order-N algorithm: no
Rotational velocity-autocorrelation function modified order-N algorithm: no
Molecular orientation-autocorrelation function modified order-N algorithm: no
Bond orientation-autocorrelation function modified order-N algorithm: no
Mean-squared displacement (conventional algorithm): no
Velocity-autocorrelation function (conventional algorithm): no
3D density grid for adsorbates: no
Compute cation an/or adsorption sites: no
dcTST snapshots: no
Compute pressure and stress: no


VTK
===========================================================================
VTK fractional-range position framework atoms: [-0.001000,1.001000] [-0.001000,1.001000] [-0.001000,1.001000]
VTK fractional-range position framework bonds: [-0.151000,1.151000] [-0.151000,1.151000] [-0.151000,1.151000]
VTK fractional-range com-position adsorbate molecules: [-0.101000,1.101000] [-0.101000,1.101000] [-0.101000,1.101000]
VTK fractional-range com-position cation molecules: [-0.101000,1.101000] [-0.101000,1.101000] [-0.101000,1.101000]
	3D free energy grid made for the full simulation-cell


Thermo/Baro-stat NHC parameters
===========================================================================
External temperature: 298 [K]
Beta: 0.00403598 [energy unit]
External Pressure: 100000 [Pa]


Thermostat chain-length: 3
Timescale parameter for thermostat: 0.150000 [ps]
Barostat chain-length:   3
Timescale parameter for barostat:   0.150000 [ps]

Number of Yoshida-Suzuki decomposition steps: 5
Number of respa steps: 5


Method and settings for electrostatics
===============================================================================
Dielectric constant of the medium : 1.000000
Charge from charge-equilibration: no
No electrostatics


CFC-RXMC parameters
===========================================================================
Number of reactions: 0


Rattle parameters
===========================================================================
Distance constraint type: r^2-r^2_0
Bend angle constraint type: theta-theta_0
Dihedral angle constraint type: phi-phi_0
Inversion-bend angle constraint type: chi-chi_0
Out-of-plane distance constraint type: r-r_0


Spectra parameters
===========================================================================
Compute normal modes: no


Minimization parameters
===========================================================================
Generalized coordinates are: Cartesian center-of-mass, elements of the orientational matrix p1,p2,p3 and strain
Potential derivatives are evaluated: analytically
Translation of the system is removed from the generalized Hessian: no
Rotation of the system is removed from the generalized Hessian: no
Maximum step-length: 0.3
Convergence factor: 1
Maximum number of minimization steps: 10000
Use gradients in the line-minimizations: yes
RMS gradient tolerance: 1e-06
Maximum gradient tolerance: 1e-06

Distance constraints: 0
Angle constraints: 0
Dihedral constraints: 0

Improper dihedral constraints: 0

Inversion-bend constraints: 0

Out-of-plane constraints: 0

Harmonic distance constraints: 0
Harmonic angle constraints: 0
Harmonic dihedral constraints: 0

Dihedral mid-point measurements: 0

All framework atoms are fixed

Fixed adsorbate atoms:  
Fixed adsorbate groups (center-of-mass):  
Fixed adsorbate groups (orientation):  

Fixed cation atoms:  
Fixed cation groups (center-of-mass):  
Fixed cation groups (orientation):  


dcTST parameters
===========================================================================
Free energy profiles computed: no
Free energy profiles written every 5000 cycles
Free energy mapping: mapped to a,b,c-coordinates
BarrierPosition:       0.0000000000       0.0000000000       0.0000000000
BarrierNormal:         0.0000000000       0.0000000000       0.0000000000
Start with a molecule on top of the barrier: no
Maximum distance to barrier (e.g. distance to minumum free energy):       0.0000000000 [A]
Maximum trajectory time:      10.0000000000 [ps]
Each configuration is used with 5 different initial velocities


Cbmc parameters
===========================================================================
Biasing method: using only the VDW part
Number of trial positions:                                       10
Number of trial positions (reinsertion):                         10
Number of trial positions (partial reinsertion):                 10
Number of trial positions (identity-change):                     10
Number of trial positions (Gibbs particle transfer):             10
Number of trial positions (insertion/deletion):                  10
Number of trial positions (Widom insertion):                     10
Number of trial positions coupled Torsion-selection:             100
Number of trial positions first bead:                            10
Number of trial positions first bead (reinsertion):              10
Number of trial positions first bead (partial reinsertion):      10
Number of trial positions first bead (identity-change):          10
Number of trial positions first bead (Gibbs particle transfer):  10
Number of trial positions first bead (insertion/deletion):       10
Number of trial positions first bead (Widom insertion):          10
Number of trial moves per open bead:                             150
Target acceptance ratio small-mc scheme:                         0.400000
Energy overlap criteria:                                         1e+07
Minimal Rosenbluth factor:                                       1e-150


Pseudo atoms: 7
===========================================================================
Pseudo Atom[   0] Name UNIT     Oxidation:          Element: H    pdb-name: H    Scat. Types:   1   1 Mass=1.000000000  B-factor:0.000   
                 Charge=1.000000000          Polarization=0.000000000  [A^3] (considered a charged atom and no polarization)  Interactions: yes
                 Anisotropic factor:    0.000 [-] (Absolute), Radius:    1.000 [A], Framework-atom:  no
Pseudo Atom[   1] Name Kr_gas   Oxidation: +0       Element: Kr   pdb-name: Kr   Scat. Types:  37  36 Mass=83.800000000 B-factor:1.000   
                 Charge=0.000000000          Polarization=0.000000000  [A^3] (considered a chargeless atom and no polarization)  Interactions: yes
                 Anisotropic factor:    0.000 [-] (Relative), Radius:    1.000 [A], Framework-atom:  no
Pseudo Atom[   2] Name Xe_gas   Oxidation: +0       Element: Xe   pdb-name: Xe   Scat. Types:  55  54 Mass=131.290000000 B-factor:1.000   
                 Charge=0.000000000          Polarization=0.000000000  [A^3] (considered a chargeless atom and no polarization)  Interactions: yes
                 Anisotropic factor:    0.000 [-] (Relative), Radius:    1.000 [A], Framework-atom:  no
Pseudo Atom[   3] Name Cu       Oxidation:          Element: Cu   pdb-name: Cu   Scat. Types:  30  29 Mass=63.546039732 B-factor:0.000   
                 Charge=0.892145833    (av)  Polarization=6.200000000  [A^3] (considered a charged atom and no polarization)  Interactions: yes
                 Anisotropic factor:    0.000 [-] (Absolute), Radius:    1.220 [A], Framework-atom: yes (charge from structure file)
Pseudo Atom[   4] Name O        Oxidation:          Element: O    pdb-name: O    Scat. Types:   9   8 Mass=15.999404927 B-factor:0.000   
                 Charge=-0.401682292   (av)  Polarization=0.802000000  [A^3] (considered a charged atom and no polarization)  Interactions: yes
                 Anisotropic factor:    0.000 [-] (Absolute), Radius:    0.640 [A], Framework-atom: yes (charge from structure file)
Pseudo Atom[   5] Name C        Oxidation:          Element: C    pdb-name: C    Scat. Types:   7   6 Mass=12.010735897 B-factor:0.000   
                 Charge=0.104812500    (av)  Polarization=1.760000000  [A^3] (considered a charged atom and no polarization)  Interactions: yes
                 Anisotropic factor:    0.000 [-] (Absolute), Radius:    0.750 [A], Framework-atom: yes (charge from structure file)
Pseudo Atom[   6] Name H        Oxidation:          Element: H    pdb-name: H    Scat. Types:   1   1 Mass=1.007940754  B-factor:0.000   
                 Charge=0.042854167    (av)  Polarization=0.666793000  [A^3] (considered a charged atom and no polarization)  Interactions: yes
                 Anisotropic factor:    0.000 [-] (Absolute), Radius:    0.320 [A], Framework-atom: yes (charge from structure file)


Forcefield: Local
===========================================================================
Minimal distance: 1
CutOff VDW : 12.000000 (144.000000)
CutOff VDW switching on: 10.800000 (116.640000)
CutOff charge-charge : 12.000000 (144.000000)
CutOff charge-charge switching on: 7.800000 (60.840000)
CutOff charge-bonddipole : 12.000000 (144.000000)
CutOff charge-bondipole switching on: 8.400000 (70.560000)
CutOff bonddipole-bonddipole : 12.000000 (144.000000)
CutOff bonddipole-bondipole switching on: 9.000000 (81.000000)
Polarization is neglected
TailCorrections are used
All potentials are unshifted !!!!!!

General mixing rule: Lorentz-Berthelot mixing rules are used FIRST for cross terms
0 cross terms are overwritten using the individual mixing rules from the file 'force_field_mixing_rules.def'
and then 0 terms are overwritten using the specific interactions from the file 'force_field.def'

The force field and all the interactions:
 Kr_gas -  Kr_gas [LENNARD_JONES] p_0/k_B: 165.20000 [K], p_1: 3.66000 [A], shift/k_B:   0.00000000 [K], tailcorrection: yes
 Kr_gas -  Xe_gas [LENNARD_JONES] p_0/k_B: 194.84086 [K], p_1: 3.81500 [A], shift/k_B:   0.00000000 [K], tailcorrection: yes
 Kr_gas -      Cu [LENNARD_JONES] p_0/k_B:  20.38895 [K], p_1: 3.38685 [A], shift/k_B:   0.00000000 [K], tailcorrection: yes
 Kr_gas -       O [LENNARD_JONES] p_0/k_B:  70.62881 [K], p_1: 3.38905 [A], shift/k_B:   0.00000000 [K], tailcorrection: yes
 Kr_gas -       C [LENNARD_JONES] p_0/k_B:  93.43311 [K], p_1: 3.54545 [A], shift/k_B:   0.00000000 [K], tailcorrection: yes
 Kr_gas -       H [LENNARD_JONES] p_0/k_B:  60.48283 [K], p_1: 3.11555 [A], shift/k_B:   0.00000000 [K], tailcorrection: yes
 Xe_gas -  Xe_gas [LENNARD_JONES] p_0/k_B: 229.80000 [K], p_1: 3.97000 [A], shift/k_B:   0.00000000 [K], tailcorrection: yes
 Xe_gas -      Cu [LENNARD_JONES] p_0/k_B:  24.04722 [K], p_1: 3.54185 [A], shift/k_B:   0.00000000 [K], tailcorrection: yes
 Xe_gas -       O [LENNARD_JONES] p_0/k_B:  83.30132 [K], p_1: 3.54405 [A], shift/k_B:   0.00000000 [K], tailcorrection: yes
 Xe_gas -       C [LENNARD_JONES] p_0/k_B: 110.19726 [K], p_1: 3.70045 [A], shift/k_B:   0.00000000 [K], tailcorrection: yes
 Xe_gas -       H [LENNARD_JONES] p_0/k_B:  71.33490 [K], p_1: 3.27055 [A], shift/k_B:   0.00000000 [K], tailcorrection: yes
     Cu -      Cu [LENNARD_JONES] p_0/k_B:   2.51640 [K], p_1: 3.11370 [A], shift/k_B:   0.00000000 [K], tailcorrection: yes
     Cu -       O [LENNARD_JONES] p_0/k_B:   8.71699 [K], p_1: 3.11590 [A], shift/k_B:   0.00000000 [K], tailcorrection: yes
     Cu -       C [LENNARD_JONES] p_0/k_B:  11.53150 [K], p_1: 3.27230 [A], shift/k_B:   0.00000000 [K], tailcorrection: yes
     Cu -       H [LENNARD_JONES] p_0/k_B:   7.46478 [K], p_1: 2.84240 [A], shift/k_B:   0.00000000 [K], tailcorrection: yes
      O -       O [LENNARD_JONES] p_0/k_B:  30.19630 [K], p_1: 3.11810 [A], shift/k_B:   0.00000000 [K], tailcorrection: yes
      O -       C [LENNARD_JONES] p_0/k_B:  39.94594 [K], p_1: 3.27450 [A], shift/k_B:   0.00000000 [K], tailcorrection: yes
      O -       H [LENNARD_JONES] p_0/k_B:  25.85854 [K], p_1: 2.84460 [A], shift/k_B:   0.00000000 [K], tailcorrection: yes
      C -       C [LENNARD_JONES] p_0/k_B:  52.84350 [K], p_1: 3.43090 [A], shift/k_B:   0.00000000 [K], tailcorrection: yes
      C -       H [LENNARD_JONES] p_0/k_B:  34.20762 [K], p_1: 3.00100 [A], shift/k_B:   0.00000000 [K], tailcorrection: yes
      H -       H [LENNARD_JONES] p_0/k_B:  22.14390 [K], p_1: 2.57110 [A], shift/k_B:   0.00000000 [K], tailcorrection: yes


MoleculeDefinitions:
===========================================================================
Component 0 [Kr] (Adsorbate molecule)

	MoleculeDefinitions: Local
	Component contains no atoms with charge
	Component contains no atoms with point dipoles (polarization)
	Component has a net charge of 0.000000

	Ideal chain Rosenbluth weight: 1
	Ideal chain total energy: 0.000000

	Critical temparure [K]: 209.350000
	Critical pressure [Pa]: 5502000.000000
	Acentric factor [-]: 0.000000

	RXMC partition factor ln(q/V) [ln(A^(-3))]:       0.0000000000

	Vapour=stable, Liquid=metastable

	MolFraction:           0.8000000000 [-]
	Compressibility:       0.9968752078 [-]

	Density of the bulk fluid phase:       3.3927562098 [kg/m^3]

	Binary mixture EOS parameters:  (0): 0.000000 (1): 0.000000

	Amount of excess molecules:       0.0000000000 [-]

	Conversion factor molecules/unit cell -> mol/kg:       0.1033276686 [-]
	Conversion factor molecules/unit cell -> mg/g:       8.6588586253 [-]
	Conversion factor molecules/unit cell -> cm^3 STP/gr:       2.3159838572 [-]
	Conversion factor molecules/unit cell -> cm^3 STP/cm^3:       2.0359739203 [-]
	Conversion factor mol/kg -> cm^3 STP/gr:      22.4139757476 [-]
	Conversion factor mol/kg -> cm^3 STP/cm^3:      19.7040536064 [-]

	Partial pressure:     80000.00000000000000 [Pa]
	                        600.00000000000000 [Torr]
	                          0.80000000000000 [bar]
	                          0.78953861337281 [atm]

	Fugacity coefficient:       0.9974953552 [-]

	Partial fugacity:     79799.62841534052859 [Pa]
	                        598.49721311505391 [Torr]
	                          0.79799628415341 [bar]
	                          0.78756109958392 [atm]

	Molecule contains 1 number of atoms
		atom:    0  is of type:    1 [    Kr_gas] (group: 0)

	Molecule contains 0 chirality centers

	Molecule contains 1 number of groups

		group: 0 containing: 1 elements
		-------------------------------------------------
		the group represents a point particle
		Mass: 83.800000 [a.u.]
		Mass: 7.611977 [kg/m^3]

		Rotational Degrees of freedom: 0
		Diagonalized inertia vector:       0.0000000000
		                                   0.0000000000
		                                   0.0000000000
		number of atoms: 1
			element: 0 atom: 0 [    Kr_gas] Charge:  0.000000 Anisotropy: 0.000000 Position:  0.000000 -0.000000  0.000000 Connectivity: 0 ()
		number of permanent dipoles: 0
		number of polarizabilities: 0

		Dipole:           0.0000000000 [D]
		Quadrupole:       0.0000000000       0.0000000000       0.0000000000 [D Angstrom]
		Quadrupole tensor [D Angstrom]
				       0.0000000000       0.0000000000       0.0000000000
				       0.0000000000       0.0000000000       0.0000000000
				       0.0000000000       0.0000000000       0.0000000000

	Starting bead for growth               : 0

	Degrees of freedom                     : 0
	Translational degrees of freedom       : 0
	Rotational degrees of freedom          : 0
	Vibrational degrees of freedom         : 0
	Constraint degrees of freedom          : 0

	Number of atoms                        : 1

	Number of constraint bonds             : 0
	Number of constraint bends             : 0
	Number of constraint inversion bends   : 0
	Number of constraint torsions          : 0
	Number of constraint improper torsions : 0
	Number of constraint improper torsions : 0

	Number of bonds                        : 0
	Number of Urey-Bradleys                : 0
	Number of bends                        : 0
	Number of inversion bends              : 0
	Number of torsions                     : 0
	Number of improper torsions            : 0
	Number of improper torsions            : 0

	Number of bond/bond cross terms        : 0
	Number of bond/bend cross terms        : 0
	Number of bend/bend cross terms        : 0
	Number of stretch/torsion cross terms  : 0
	Number of bend/torsion cross terms     : 0

	Number of charges                      : 0
	Number of bond-dipoles                 : 0

	Number of intra Van der Waals                             : 0
	Number of intra charge-charge Coulomb                     : 0
	Number of intra charge-bonddipole Coulomb                 : 0
	Number of intra bonddipole-bonddipole Coulomb             : 0

	Number of excluded intra charge-charge Coulomb                     : 0
	Number of excluded intra charge-bonddipole Coulomb                 : 0
	Number of excluded intra bonddipole-bonddipole Coulomb             : 0

	Number of cbmc-config moves                               : 0

	Particle Moves:             
		ProbabilityTranslationMove:                  16.666667
			TranslationDirection:      XYZ
		Percentage of random translation moves:            0.000000
		Percentage of rotation moves:                      0.000000
		Percentage of random rotation moves:               0.000000
		Percentage of partial reinsertion moves:           0.000000
		Percentage of reinsertion moves:                   16.666667
		Percentage of reinsertion-in-place moves:          0.000000
		Percentage of reinsertion-in-plane moves:          0.000000
		Percentage of identity-change moves:               33.333333
			move 0    component 0 => 0
			move 1    component 0 => 1
		Percentage of swap (insert/delete) moves:          33.333333
		Percentage of CF swap lambda moves:                0.000000
		Percentage of CB/CFMC swap lambda moves:           0.000000
		Percentage of Widom insertion moves:               0.000000
		Percentage of CF-Widom insertion moves:            0.000000
		Percentage of Gibbs Widom insertion moves:         0.000000
		Percentage of surface-area moves:                  0.000000
		Percentage of Gibbs particle-transfer moves:       0.000000
		Percentage of Gibbs identity-change moves:         0.000000
		Percentage of CF Gibbs lambda-transfer moves:      0.000000
		Percentage of CB/CFMC Gibbs lambda-transfer moves: 0.000000
		Percentage of exchange frac./int. particle moves:  0.000000
		Percentage of fractional mol. to other box moves:  0.000000
		Percentage of lambda-change moves:                 0.000000
		Percentage of fractional to integer moves:         0.000000

	System Moves:
		Percentage of parallel-tempering moves:            0.000000
		Percentage of hyper-parallel-tempering moves:      0.000000
		Percentage of parallel-mol-fraction moves:         0.000000
			   Component A: 0 B: 1
		Percentage of chiral inversion moves:              0.000000
		Percentage of Hybrid-NVE moves:                    0.000000
		Percentage of Hybrid-NPH moves:                    0.000000
		Percentage of Hybrid-NPHPR moves:                  0.000000
		Percentage of volume-change moves:                 0.000000
		Percentage of box-shape-change moves:              0.000000
		Percentage of Gibbs volume-change moves:           0.000000
		Percentage of framework-change moves:              0.000000
		Percentage of framework-shift moves:               0.000000
		Percentage of reactive MC moves:                   0.000000

	Moves are restricted: No
	No biased sampling used for this component


	number of identity changes: 2
	--------------------------------------------
	0 (Kr) to 0 (Kr)
	0 (Kr) to 1 (Xe)

	number of identity-config changes: 1
	--------------------------------------------
	nr fixed 1: 0 

	Number of pockets blocked in a unitcell: 0
		Pockets are NOT blocked for this component

Component 1 [Xe] (Adsorbate molecule)

	MoleculeDefinitions: Local
	Component contains no atoms with charge
	Component contains no atoms with point dipoles (polarization)
	Component has a net charge of 0.000000

	Ideal chain Rosenbluth weight: 1
	Ideal chain total energy: 0.000000

	Critical temparure [K]: 289.740000
	Critical pressure [Pa]: 5840000.000000
	Acentric factor [-]: 0.000000

	RXMC partition factor ln(q/V) [ln(A^(-3))]:       0.0000000000

	Vapour=stable, Liquid=metastable

	MolFraction:           0.2000000000 [-]
	Compressibility:       0.9968752078 [-]

	Density of the bulk fluid phase:       5.3154530165 [kg/m^3]

	Binary mixture EOS parameters:  (0): 0.000000 (1): 0.000000

	Amount of excess molecules:       0.0000000000 [-]

	Conversion factor molecules/unit cell -> mol/kg:       0.1033276686 [-]
	Conversion factor molecules/unit cell -> mg/g:      13.5658896053 [-]
	Conversion factor molecules/unit cell -> cm^3 STP/gr:       2.3159838572 [-]
	Conversion factor molecules/unit cell -> cm^3 STP/cm^3:       2.0359739203 [-]
	Conversion factor mol/kg -> cm^3 STP/gr:      22.4139757476 [-]
	Conversion factor mol/kg -> cm^3 STP/cm^3:      19.7040536064 [-]

	Partial pressure:     20000.00000000000000 [Pa]
	                        150.00000000000000 [Torr]
	                          0.20000000000000 [bar]
	                          0.19738465334320 [atm]

	Fugacity coefficient:       0.9944223858 [-]

	Partial fugacity:     19888.44771505998142 [Pa]
	                        149.16335786294985 [Torr]
	                          0.19888447715060 [bar]
	                          0.19628371788858 [atm]

	Molecule contains 1 number of atoms
		atom:    0  is of type:    2 [    Xe_gas] (group: 0)

	Molecule contains 0 chirality centers

	Molecule contains 1 number of groups

		group: 0 containing: 1 elements
		-------------------------------------------------
		the group represents a point particle
		Mass: 131.290000 [a.u.]
		Mass: 11.925734 [kg/m^3]

		Rotational Degrees of freedom: 0
		Diagonalized inertia vector:       0.0000000000
		                                   0.0000000000
		                                   0.0000000000
		number of atoms: 1
			element: 0 atom: 0 [    Xe_gas] Charge:  0.000000 Anisotropy: 0.000000 Position:  0.000000 -0.000000  0.000000 Connectivity: 0 ()
		number of permanent dipoles: 0
		number of polarizabilities: 0

		Dipole:           0.0000000000 [D]
		Quadrupole:       0.0000000000       0.0000000000       0.0000000000 [D Angstrom]
		Quadrupole tensor [D Angstrom]
				       0.0000000000       0.0000000000       0.0000000000
				       0.0000000000       0.0000000000       0.0000000000
				       0.0000000000       0.0000000000       0.0000000000

	Starting bead for growth               : 0

	Degrees of freedom                     : 0
	Translational degrees of freedom       : 0
	Rotational degrees of freedom          : 0
	Vibrational degrees of freedom         : 0
	Constraint degrees of freedom          : 0

	Number of atoms                        : 1

	Number of constraint bonds             : 0
	Number of constraint bends             : 0
	Number of constraint inversion bends   : 0
	Number of constraint torsions          : 0
	Number of constraint improper torsions : 0
	Number of constraint improper torsions : 0

	Number of bonds                        : 0
	Number of Urey-Bradleys                : 0
	Number of bends                        : 0
	Number of inversion bends              : 0
	Number of torsions                     : 0
	Number of improper torsions            : 0
	Number of improper torsions            : 0

	Number of bond/bond cross terms        : 0
	Number of bond/bend cross terms        : 0
	Number of bend/bend cross terms        : 0
	Number of stretch/torsion cross terms  : 0
	Number of bend/torsion cross terms     : 0

	Number of charges                      : 0
	Number of bond-dipoles                 : 0

	Number of intra Van der Waals                             : 0
	Number of intra charge-charge Coulomb                     : 0
	Number of intra charge-bonddipole Coulomb                 : 0
	Number of intra bonddipole-bonddipole Coulomb             : 0

	Number of excluded intra charge-charge Coulomb                     : 0
	Number of excluded intra charge-bonddipole Coulomb                 : 0
	Number of excluded intra bonddipole-bonddipole Coulomb             : 0

	Number of cbmc-config moves                               : 0

	Particle Moves:             
		ProbabilityTranslationMove:                  16.666667
			TranslationDirection:      XYZ
		Percentage of random translation moves:            0.000000
		Percentage of rotation moves:                      0.000000
		Percentage of random rotation moves:               0.000000
		Percentage of partial reinsertion moves:           0.000000
		Percentage of reinsertion moves:                   16.666667
		Percentage of reinsertion-in-place moves:          0.000000
		Percentage of reinsertion-in-plane moves:          0.000000
		Percentage of identity-change moves:               33.333333
			move 0    component 1 => 0
			move 1    component 1 => 1
		Percentage of swap (insert/delete) moves:          33.333333
		Percentage of CF swap lambda moves:                0.000000
		Percentage of CB/CFMC swap lambda moves:           0.000000
		Percentage of Widom insertion moves:               0.000000
		Percentage of CF-Widom insertion moves:            0.000000
		Percentage of Gibbs Widom insertion moves:         0.000000
		Percentage of surface-area moves:                  0.000000
		Percentage of Gibbs particle-transfer moves:       0.000000
		Percentage of Gibbs identity-change moves:         0.000000
		Percentage of CF Gibbs lambda-transfer moves:      0.000000
		Percentage of CB/CFMC Gibbs lambda-transfer moves: 0.000000
		Percentage of exchange frac./int. particle moves:  0.000000
		Percentage of fractional mol. to other box moves:  0.000000
		Percentage of lambda-change moves:                 0.000000
		Percentage of fractional to integer moves:         0.000000

	System Moves:
		Percentage of parallel-tempering moves:            0.000000
		Percentage of hyper-parallel-tempering moves:      0.000000
		Percentage of parallel-mol-fraction moves:         0.000000
			   Component A: 0 B: 1
		Percentage of chiral inversion moves:              0.000000
		Percentage of Hybrid-NVE moves:                    0.000000
		Percentage of Hybrid-NPH moves:                    0.000000
		Percentage of Hybrid-NPHPR moves:                  0.000000
		Percentage of volume-change moves:                 0.000000
		Percentage of box-shape-change moves:              0.000000
		Percentage of Gibbs volume-change moves:           0.000000
		Percentage of framework-change moves:              0.000000
		Percentage of framework-shift moves:               0.000000
		Percentage of reactive MC moves:                   0.000000

	Moves are restricted: No
	No biased sampling used for this component


	number of identity changes: 2
	--------------------------------------------
	1 (Xe) to 0 (Kr)
	1 (Xe) to 1 (Xe)

	number of identity-config changes: 1
	--------------------------------------------
	nr fixed 1: 0 

	Number of pockets blocked in a unitcell: 0
		Pockets are NOT blocked for this component



Framework Status
===========================================================================
Lowenstein's rule obeyed by framework
	Framework is modelled as: rigid

	Number of charges:                               624
	Number of bonddipoles:                           0


System Properties
===========================================================================
Unit cell size: 26.343000 26.343000 26.343000
Cell angles (radians)  alpha: 1.570796 beta: 1.570796 gamma: 1.570796
Cell angles (degrees)  alpha: 90.000000 beta: 90.000000 gamma: 90.000000
Number of unitcells [a]: 1
Number of unitcells [b]: 1
Number of unitcells [c]: 1

TRICLINIC Boundary conditions: alpha!=90 or beta!=90 or gamma!=90

Cartesian axis A is collinear with crystallographic axis a
Cartesian axis B is collinear with (axb)xA
Cartesian axis C is collinear with (axb)

lengths of cell vectors:
 26.34300  26.34300  26.34300
cosines of cell angles:
  0.00000   0.00000   0.00000
perpendicular cell widths:
 26.34300  26.34300  26.34300
volume of the cell: 18280.820975607003 (A^3)

Orthogonalization matrix Box
Transforms fractional coordinates abc into orthonormal Cartesian coordinates xyz
Deorthogonalization matrix InverseBox
Transforms orthonormal Cartesian coordinates xyz into fractional coordinates xyz

Box[0]:
	   26.343000000000     0.000000000000     0.000000000000
	    0.000000000000    26.343000000000     0.000000000000
	    0.000000000000     0.000000000000    26.343000000000

Inverse box[0]:
	    0.037960748586    -0.000000000000    -0.000000000000
	    0.000000000000     0.037960748586    -0.000000000000
	    0.000000000000     0.000000000000     0.037960748586


Unitcell box[0]:
	   26.343000000000     0.000000000000     0.000000000000
	    0.000000000000    26.343000000000     0.000000000000
	    0.000000000000     0.000000000000    26.343000000000

Unitcell inverse box[0]:
	    0.037960748586    -0.000000000000    -0.000000000000
	    0.000000000000     0.037960748586    -0.000000000000
	    0.000000000000     0.000000000000     0.037960748586

lengths of cell vectors (inverse box):
  0.03796   0.03796   0.03796
cosines of cell angles (inverse box):
 -0.00000  -0.00000  -0.00000
perpendicular cell widths (inverse):
  0.03796   0.03796   0.03796
volume of the cell: 18280.820975607003 (A^3)

No replicas are used
Framework is simulated as 'rigid'
Number of framework atoms: 624
Number of framework atoms in the unit cell: 624
Framework Mass:  9677.949903787350 [g/mol]
Framework Density:   879.096766601941 [kg/m^3]    1.1375312001947 [cm^3/g]
Helium void fraction:    0.00000000
Available pore volume:    0.00000000 [A^3]    0.00000000 [cm^3/g]
Conversion factor from molecule/unit cell -> kmol/m^3: 0.090835, kmol/m^3 accesible pore volume: inf

Number Of Frameworks (per system): 1
----------------------------------------------------------------------
Framework name: framework_1
Space group: 1
	Identifier: 1
	short international Hermann-Mauguin symbol: P 1
	long international Hermann-Mauguin symbol: P 1
	Hall symbol: P 1
	Number of lattice translations: 1 [ (0,0,0) ]
	acentric/centric: acentric
	chiral: no
	enantiomorphic: no
	number of operators: 1
		'x,y,z'
Framework is simulated as 'rigid'
Shift: 0.000000 0.000000 0.000000
Number of framework atoms: 624
Number of asymmetric atoms: 624
Number of free framework atoms: 0
Number of fixed framework atoms: 624
Number of framework atoms in the unit cell: 624
Framework Mass:  9677.949903787350 [g/mol]
Framework Density:   879.096766601941 [kg/m^3]
Framework has net charge: 0.000000
         largest charge : 0.908000
         smallest charge: -0.430000

Using FULL Host-guest interaction calculation (for testing purposes)

Current Atom Status
===========================================================================
Number of framework atoms        : 624
Number of cations molecules      : 0
Number of adsorbate molecules    : 0
Component    0 :    0 molecules
Component    1 :    0 molecules
Pseudo Atoms    0 [    UNIT]:    0 atoms
Pseudo Atoms    1 [  Kr_gas]:    0 atoms
Pseudo Atoms    2 [  Xe_gas]:    0 atoms
Pseudo Atoms    3 [      Cu]:   48 atoms
Pseudo Atoms    4 [       O]:  192 atoms
Pseudo Atoms    5 [       C]:  288 atoms
Pseudo Atoms    6 [       H]:   96 atoms


Current (initial full energy) Energy Status
===========================================================================

Internal energy:
Host stretch energy:                                            0.00000000
Host UreyBradley energy:                                        0.00000000
Host bend energy:                                               0.00000000
Host inversion-bend energy:                                     0.00000000
Host torsion energy:                                            0.00000000
Host improper torsion energy:                                   0.00000000
Host out-of-plane energy:                                       0.00000000
Host stretch/stretch energy:                                    0.00000000
Host bend/bend energy:                                          0.00000000
Host stretch/bend energy:                                       0.00000000
Host stretch/torsion energy:                                    0.00000000
Host bend/torsion energy:                                       0.00000000

Adsorbate stretch energy:                                       0.00000000
Adsorbate UreyBradley energy:                                   0.00000000
Adsorbate bend energy:                                          0.00000000
Adsorbate inversion-bend energy:                                0.00000000
Adsorbate torsion energy:                                       0.00000000
Adsorbate improper torsion energy:                              0.00000000
Adsorbate out-of-plane energy:                                  0.00000000
Adsorbate stretch/stretch energy:                               0.00000000
Adsorbate bend/bend energy:                                     0.00000000
Adsorbate stretch/bend energy:                                  0.00000000
Adsorbate stretch/torsion energy:                               0.00000000
Adsorbate bend/torsion energy:                                  0.00000000
Adsorbate intra VDW energy:                                     0.00000000
Adsorbate intra charge-charge Coulomb energy:                   0.00000000
Adsorbate intra charge-bonddipole Coulomb energy:               0.00000000
Adsorbate intra bonddipole-bonddipole Coulomb energy:           0.00000000

Cation stretch energy:                                          0.00000000
Cation UreyBradley energy:                                      0.00000000
Cation bend energy:                                             0.00000000
Cation inversion-bend energy:                                   0.00000000
Cation torsion energy:                                          0.00000000
Cation improper torsion energy:                                 0.00000000
Cation out-of-plane energy:                                     0.00000000
Cation stretch/stretch energy:                                  0.00000000
Cation bend/bend energy:                                        0.00000000
Cation stretch/bend energy:                                     0.00000000
Cation stretch/torsion energy:                                  0.00000000
Cation bend/torsion energy:                                     0.00000000
Cation intra VDW energy:                                        0.00000000
Cation intra charge-charge Coulomb energy:                      0.00000000
Cation intra charge-bonddipole Coulomb energy:                  0.00000000
Cation intra bonddipole-bonddipole Coulomb energy:              0.00000000

Host/Host energy:                                             0.00000000
	Host/Host VDW energy:                                         0.00000000
	Host/Host Coulomb energy:                                     0.00000000
	Host/Host charge-charge Real energy:                          0.00000000
	Host/Host charge-charge Fourier energy:                       0.00000000
	Host/Host charge-bonddipole Real energy:                      0.00000000
	Host/Host charge-bonddipole Fourier energy:                   0.00000000
	Host/Host bondipole-bonddipole Real energy:                   0.00000000
	Host/Host bondipole-bonddipole Fourier energy:                0.00000000

Host/Adsorbate energy:                                        0.00000000
	Host/Adsorbate VDW energy:                                    0.00000000
	Host/Adsorbate Coulomb energy:                                0.00000000
	Host/Adsorbate charge-charge Real energy:                     0.00000000
	Host/Adsorbate charge-charge Fourier energy:                  0.00000000
	Host/Adsorbate charge-bonddipole Real energy:                 0.00000000
	Host/Adsorbate charge-bonddipole Fourier energy:              0.00000000
	Host/Adsorbate bondipole-bonddipole Real energy:              0.00000000
	Host/Adsorbate bondipole-bonddipole Fourier energy:           0.00000000

Host/Cation energy:                                           0.00000000
	Host/Cation VDW energy:                                       0.00000000
	Host/Cation Coulomb energy:                                   0.00000000
	Host/Cation charge-charge Real energy:                        0.00000000
	Host/Cation charge-charge Fourier energy:                     0.00000000
	Host/Cation charge-bonddipole Real energy:                    0.00000000
	Host/Cation charge-bonddipole Fourier energy:                 0.00000000
	Host/Cation bondipole-bonddipole Real energy:                 0.00000000
	Host/Cation bondipole-bonddipole Fourier energy:              0.00000000

Adsorbate/Adsorbate energy:                                        0.00000000
	Adsorbate/Adsorbate VDW energy:                                    0.00000000
	Adsorbate/Adsorbate Coulomb energy:                                0.00000000
	Adsorbate/Adsorbate charge-charge Real energy:                     0.00000000
	Adsorbate/Adsorbate charge-charge Fourier energy:                  0.00000000
	Adsorbate/Adsorbate charge-bonddipole Real energy:                 0.00000000
	Adsorbate/Adsorbate charge-bonddipole Fourier energy:              0.00000000
	Adsorbate/Adsorbate bondipole-bonddipole Real energy:              0.00000000
	Adsorbate/Adsorbate bondipole-bonddipole Fourier energy:           0.00000000

Adsorbate/Cation energy:                                           0.00000000
	Adsorbate/Cation VDW energy:                                       0.00000000
	Adsorbate/Cation Coulomb energy:                                   0.00000000
	Adsorbate/Cation charge-charge Real energy:                        0.00000000
	Adsorbate/Cation charge-charge Fourier energy:                     0.00000000
	Adsorbate/Cation charge-bonddipole Real energy:                    0.00000000
	Adsorbate/Cation charge-bonddipole Fourier energy:                 0.00000000
	Adsorbate/Cation bondipole-bonddipole Real energy:                 0.00000000
	Adsorbate/Cation bondipole-bonddipole Fourier energy:              0.00000000

Cation/Cation energy:                                           0.00000000
	Cation/Cation VDW energy:                                       0.00000000
	Cation/Cation Coulomb energy:                                   0.00000000
	Cation/Cation charge-charge Real energy:                        0.00000000
	Cation/Cation charge-charge Fourier energy:                     0.00000000
	Cation/Cation charge-bonddipole Real energy:                    0.00000000
	Cation/Cation charge-bonddipole Fourier energy:                 0.00000000
	Cation/Cation bondipole-bonddipole Real energy:                 0.00000000
	Cation/Cation bondipole-bonddipole Fourier energy:              0.00000000

Polarization energy:
	Host polarization energy:                                     0.00000000
	Adsorbate polarization energy:                                0.00000000
	Cation polarization energy:                                   0.00000000
	Host back-polarization energy:                                     0.00000000
	Adsorbate back-polarization energy:                                0.00000000
	Cation back-polarization energy:                                   0.00000000

Tail-correction energy:                                   -4280.63475781

Distance constraints energy:                                  0.00000000
Angle constraints energy:                                     0.00000000
Dihedral constraints energy:                                  0.00000000
Inversion-bend constraints energy:                            0.00000000
Out-of-plane distance constraints energy:                     0.00000000
Exclusion constraints energy:                                 0.00000000

===================================================================
Total energy: -4280.634757810148
	Total Van der Waals: 0.000000
	Total Coulomb: 0.000000

	Total Polarization: 0.000000







+++++++++++++++++++++++++++++++++++++++++++++++++++++++++++++++++++++++++
Starting simulation
+++++++++++++++++++++++++++++++++++++++++++++++++++++++++++++++++++++++++

[Init] Current cycle: 0 out of 100
========================================================================================================

Net charge: 0 (F: 0, A: 0, C: 0)
Current Box:  26.34300   0.00000   0.00000 [A]
               0.00000  26.34300   0.00000 [A]
               0.00000   0.00000  26.34300 [A]
Box-lengths:  26.34300  26.34300  26.34300 Box-angles:   90.00000  90.00000  90.00000 [degrees]
Volume: 18280.82098 [A^3]

Loadings per component:
----------------------------------------------------------------------------------------------------------------------------------------------------
Component 0 (Kr), current number of integer/fractional/reaction molecules: 0/0/0, density:   0.00000 [kg/m^3]
	absolute adsorption:   0.00000 [mol/uc],         0.0000 [mol/kg],              0.0000 [mg/g]
	                                                 0.0000 [cm^3 STP/g],          0.0000 [cm^3 STP/cm^3]
	excess adsorption:     0.00000 [mol/uc],         0.0000 [mol/kg],              0.0000 [mg/g]
	                                                 0.0000 [cm^3 STP/g],          0.0000 [cm^3 STP/cm^3]
----------------------------------------------------------------------------------------------------------------------------------------------------
Component 1 (Xe), current number of integer/fractional/reaction molecules: 0/0/0, density:   0.00000 [kg/m^3]
	absolute adsorption:   0.00000 [mol/uc],         0.0000 [mol/kg],              0.0000 [mg/g]
	                                                 0.0000 [cm^3 STP/g],          0.0000 [cm^3 STP/cm^3]
	excess adsorption:     0.00000 [mol/uc],         0.0000 [mol/kg],              0.0000 [mg/g]
	                                                 0.0000 [cm^3 STP/g],          0.0000 [cm^3 STP/cm^3]
----------------------------------------------------------------------------------------------------------------------------------------------------
Degrees of freedom: 0 0 0 0
Number of Framework-atoms:    624
Number of Adsorbates:           0 (0 integer, 0 fractional, 0 reaction)
Number of Cations:              0 (0 integer, 0 fractional, 0 reaction

Current total potential energy:             -4280.6347578101 [K]
	Current Host-Host energy:                     0.0000000000 [K]
	Current Host-Adsorbate energy:                0.0000000000 [K]
	Current Host-Cation energy:                   0.0000000000 [K]
	Current Adsorbate-Adsorbate energy:           0.0000000000 [K]
	Current Cation-Cation energy:                 0.0000000000 [K]
	Current Adsorbate-Cation energy:              0.0000000000 [K]



[Init] Current cycle: 10 out of 100
========================================================================================================

Net charge: 0 (F: 0, A: 0, C: 0)
Current Box:  26.34300   0.00000   0.00000 [A]
               0.00000  26.34300   0.00000 [A]
               0.00000   0.00000  26.34300 [A]
Box-lengths:  26.34300  26.34300  26.34300 Box-angles:   90.00000  90.00000  90.00000 [degrees]
Volume: 18280.82098 [A^3]

Loadings per component:
----------------------------------------------------------------------------------------------------------------------------------------------------
Component 0 (Kr), current number of integer/fractional/reaction molecules: 9/0/0, density:  68.50783 [kg/m^3]
	absolute adsorption:   9.00000 [mol/uc],         0.9299 [mol/kg],             77.9297 [mg/g]
	                                                20.8439 [cm^3 STP/g],         18.3238 [cm^3 STP/cm^3]
	excess adsorption:     9.00000 [mol/uc],         0.9299 [mol/kg],             77.9297 [mg/g]
	                                                20.8439 [cm^3 STP/g],         18.3238 [cm^3 STP/cm^3]
----------------------------------------------------------------------------------------------------------------------------------------------------
Component 1 (Xe), current number of integer/fractional/reaction molecules: 11/0/0, density: 131.18314 [kg/m^3]
	absolute adsorption:  11.00000 [mol/uc],         1.1366 [mol/kg],            149.2248 [mg/g]
	                                                25.4758 [cm^3 STP/g],         22.3957 [cm^3 STP/cm^3]
	excess adsorption:    11.00000 [mol/uc],         1.1366 [mol/kg],            149.2248 [mg/g]
	                                                25.4758 [cm^3 STP/g],         22.3957 [cm^3 STP/cm^3]
----------------------------------------------------------------------------------------------------------------------------------------------------
Degrees of freedom: 60 0 60 0
Number of Framework-atoms:    624
Number of Adsorbates:          20 (20 integer, 0 fractional, 0 reaction)
Number of Cations:              0 (0 integer, 0 fractional, 0 reaction

Current total potential energy:            -41315.5893868915 [K]
	Current Host-Host energy:                     0.0000000000 [K]
	Current Host-Adsorbate energy:           -34498.8248061600 [K]
	Current Host-Cation energy:                   0.0000000000 [K]
	Current Adsorbate-Adsorbate energy:       -1359.3163466766 [K]
	Current Cation-Cation energy:                 0.0000000000 [K]
	Current Adsorbate-Cation energy:              0.0000000000 [K]



[Init] Current cycle: 20 out of 100
========================================================================================================

Net charge: 0 (F: 0, A: 0, C: 0)
Current Box:  26.34300   0.00000   0.00000 [A]
               0.00000  26.34300   0.00000 [A]
               0.00000   0.00000  26.34300 [A]
Box-lengths:  26.34300  26.34300  26.34300 Box-angles:   90.00000  90.00000  90.00000 [degrees]
Volume: 18280.82098 [A^3]

Loadings per component:
----------------------------------------------------------------------------------------------------------------------------------------------------
Component 0 (Kr), current number of integer/fractional/reaction molecules: 8/0/0, density:  60.89585 [kg/m^3]
	absolute adsorption:   8.00000 [mol/uc],         0.8266 [mol/kg],             69.2709 [mg/g]
	                                                18.5279 [cm^3 STP/g],         16.2878 [cm^3 STP/cm^3]
	excess adsorption:     8.00000 [mol/uc],         0.8266 [mol/kg],             69.2709 [mg/g]
	                                                18.5279 [cm^3 STP/g],         16.2878 [cm^3 STP/cm^3]
----------------------------------------------------------------------------------------------------------------------------------------------------
Component 1 (Xe), current number of integer/fractional/reaction molecules: 11/0/0, density: 131.18314 [kg/m^3]
	absolute adsorption:  11.00000 [mol/uc],         1.1366 [mol/kg],            149.2248 [mg/g]
	                                                25.4758 [cm^3 STP/g],         22.3957 [cm^3 STP/cm^3]
	excess adsorption:    11.00000 [mol/uc],         1.1366 [mol/kg],            149.2248 [mg/g]
	                                                25.4758 [cm^3 STP/g],         22.3957 [cm^3 STP/cm^3]
----------------------------------------------------------------------------------------------------------------------------------------------------
Degrees of freedom: 57 0 57 0
Number of Framework-atoms:    624
Number of Adsorbates:          19 (19 integer, 0 fractional, 0 reaction)
Number of Cations:              0 (0 integer, 0 fractional, 0 reaction

Current total potential energy:            -44676.5611843940 [K]
	Current Host-Host energy:                     0.0000000000 [K]
	Current Host-Adsorbate energy:           -38037.3853604586 [K]
	Current Host-Cation energy:                   0.0000000000 [K]
	Current Adsorbate-Adsorbate energy:       -1229.8592473956 [K]
	Current Cation-Cation energy:                 0.0000000000 [K]
	Current Adsorbate-Cation energy:              0.0000000000 [K]



[Init] Current cycle: 30 out of 100
========================================================================================================

Net charge: 0 (F: 0, A: 0, C: 0)
Current Box:  26.34300   0.00000   0.00000 [A]
               0.00000  26.34300   0.00000 [A]
               0.00000   0.00000  26.34300 [A]
Box-lengths:  26.34300  26.34300  26.34300 Box-angles:   90.00000  90.00000  90.00000 [degrees]
Volume: 18280.82098 [A^3]

Loadings per component:
----------------------------------------------------------------------------------------------------------------------------------------------------
Component 0 (Kr), current number of integer/fractional/reaction molecules: 6/0/0, density:  45.67189 [kg/m^3]
	absolute adsorption:   6.00000 [mol/uc],         0.6200 [mol/kg],             51.9532 [mg/g]
	                                                13.8959 [cm^3 STP/g],         12.2158 [cm^3 STP/cm^3]
	excess adsorption:     6.00000 [mol/uc],         0.6200 [mol/kg],             51.9532 [mg/g]
	                                                13.8959 [cm^3 STP/g],         12.2158 [cm^3 STP/cm^3]
----------------------------------------------------------------------------------------------------------------------------------------------------
Component 1 (Xe), current number of integer/fractional/reaction molecules: 10/0/0, density: 119.25740 [kg/m^3]
	absolute adsorption:  10.00000 [mol/uc],         1.0333 [mol/kg],            135.6589 [mg/g]
	                                                23.1598 [cm^3 STP/g],         20.3597 [cm^3 STP/cm^3]
	excess adsorption:    10.00000 [mol/uc],         1.0333 [mol/kg],            135.6589 [mg/g]
	                                                23.1598 [cm^3 STP/g],         20.3597 [cm^3 STP/cm^3]
----------------------------------------------------------------------------------------------------------------------------------------------------
Degrees of freedom: 48 0 48 0
Number of Framework-atoms:    624
Number of Adsorbates:          16 (16 integer, 0 fractional, 0 reaction)
Number of Cations:              0 (0 integer, 0 fractional, 0 reaction

Current total potential energy:            -41804.7646454481 [K]
	Current Host-Host energy:                     0.0000000000 [K]
	Current Host-Adsorbate energy:           -35928.0181301360 [K]
	Current Host-Cation energy:                   0.0000000000 [K]
	Current Adsorbate-Adsorbate energy:        -635.6492334236 [K]
	Current Cation-Cation energy:                 0.0000000000 [K]
	Current Adsorbate-Cation energy:              0.0000000000 [K]



[Init] Current cycle: 40 out of 100
========================================================================================================

Net charge: 0 (F: 0, A: 0, C: 0)
Current Box:  26.34300   0.00000   0.00000 [A]
               0.00000  26.34300   0.00000 [A]
               0.00000   0.00000  26.34300 [A]
Box-lengths:  26.34300  26.34300  26.34300 Box-angles:   90.00000  90.00000  90.00000 [degrees]
Volume: 18280.82098 [A^3]

Loadings per component:
----------------------------------------------------------------------------------------------------------------------------------------------------
Component 0 (Kr), current number of integer/fractional/reaction molecules: 9/0/0, density:  68.50783 [kg/m^3]
	absolute adsorption:   9.00000 [mol/uc],         0.9299 [mol/kg],             77.9297 [mg/g]
	                                                20.8439 [cm^3 STP/g],         18.3238 [cm^3 STP/cm^3]
	excess adsorption:     9.00000 [mol/uc],         0.9299 [mol/kg],             77.9297 [mg/g]
	                                                20.8439 [cm^3 STP/g],         18.3238 [cm^3 STP/cm^3]
----------------------------------------------------------------------------------------------------------------------------------------------------
Component 1 (Xe), current number of integer/fractional/reaction molecules: 15/0/0, density: 178.88610 [kg/m^3]
	absolute adsorption:  15.00000 [mol/uc],         1.5499 [mol/kg],            203.4883 [mg/g]
	                                                34.7398 [cm^3 STP/g],         30.5396 [cm^3 STP/cm^3]
	excess adsorption:    15.00000 [mol/uc],         1.5499 [mol/kg],            203.4883 [mg/g]
	                                                34.7398 [cm^3 STP/g],         30.5396 [cm^3 STP/cm^3]
----------------------------------------------------------------------------------------------------------------------------------------------------
Degrees of freedom: 72 0 72 0
Number of Framework-atoms:    624
Number of Adsorbates:          24 (24 integer, 0 fractional, 0 reaction)
Number of Cations:              0 (0 integer, 0 fractional, 0 reaction

Current total potential energy:            -58126.0365466997 [K]
	Current Host-Host energy:                     0.0000000000 [K]
	Current Host-Adsorbate energy:           -50589.4523725398 [K]
	Current Host-Cation energy:                   0.0000000000 [K]
	Current Adsorbate-Adsorbate energy:       -1780.1933119090 [K]
	Current Cation-Cation energy:                 0.0000000000 [K]
	Current Adsorbate-Cation energy:              0.0000000000 [K]



[Init] Current cycle: 50 out of 100
========================================================================================================

Net charge: 0 (F: 0, A: 0, C: 0)
Current Box:  26.34300   0.00000   0.00000 [A]
               0.00000  26.34300   0.00000 [A]
               0.00000   0.00000  26.34300 [A]
Box-lengths:  26.34300  26.34300  26.34300 Box-angles:   90.00000  90.00000  90.00000 [degrees]
Volume: 18280.82098 [A^3]

Loadings per component:
----------------------------------------------------------------------------------------------------------------------------------------------------
Component 0 (Kr), current number of integer/fractional/reaction molecules: 8/0/0, density:  60.89585 [kg/m^3]
	absolute adsorption:   8.00000 [mol/uc],         0.8266 [mol/kg],             69.2709 [mg/g]
	                                                18.5279 [cm^3 STP/g],         16.2878 [cm^3 STP/cm^3]
	excess adsorption:     8.00000 [mol/uc],         0.8266 [mol/kg],             69.2709 [mg/g]
	                                                18.5279 [cm^3 STP/g],         16.2878 [cm^3 STP/cm^3]
----------------------------------------------------------------------------------------------------------------------------------------------------
Component 1 (Xe), current number of integer/fractional/reaction molecules: 11/0/0, density: 131.18314 [kg/m^3]
	absolute adsorption:  11.00000 [mol/uc],         1.1366 [mol/kg],            149.2248 [mg/g]
	                                                25.4758 [cm^3 STP/g],         22.3957 [cm^3 STP/cm^3]
	excess adsorption:    11.00000 [mol/uc],         1.1366 [mol/kg],            149.2248 [mg/g]
	                                                25.4758 [cm^3 STP/g],         22.3957 [cm^3 STP/cm^3]
----------------------------------------------------------------------------------------------------------------------------------------------------
Degrees of freedom: 57 0 57 0
Number of Framework-atoms:    624
Number of Adsorbates:          19 (19 integer, 0 fractional, 0 reaction)
Number of Cations:              0 (0 integer, 0 fractional, 0 reaction

Current total potential energy:            -50010.9850796487 [K]
	Current Host-Host energy:                     0.0000000000 [K]
	Current Host-Adsorbate energy:           -43418.4979300630 [K]
	Current Host-Cation energy:                   0.0000000000 [K]
	Current Adsorbate-Adsorbate energy:       -1183.1705730460 [K]
	Current Cation-Cation energy:                 0.0000000000 [K]
	Current Adsorbate-Cation energy:              0.0000000000 [K]



[Init] Current cycle: 60 out of 100
========================================================================================================

Net charge: 0 (F: 0, A: 0, C: 0)
Current Box:  26.34300   0.00000   0.00000 [A]
               0.00000  26.34300   0.00000 [A]
               0.00000   0.00000  26.34300 [A]
Box-lengths:  26.34300  26.34300  26.34300 Box-angles:   90.00000  90.00000  90.00000 [degrees]
Volume: 18280.82098 [A^3]

Loadings per component:
----------------------------------------------------------------------------------------------------------------------------------------------------
Component 0 (Kr), current number of integer/fractional/reaction molecules: 11/0/0, density:  83.73180 [kg/m^3]
	absolute adsorption:  11.00000 [mol/uc],         1.1366 [mol/kg],             95.2474 [mg/g]
	                                                25.4758 [cm^3 STP/g],         22.3957 [cm^3 STP/cm^3]
	excess adsorption:    11.00000 [mol/uc],         1.1366 [mol/kg],             95.2474 [mg/g]
	                                                25.4758 [cm^3 STP/g],         22.3957 [cm^3 STP/cm^3]
----------------------------------------------------------------------------------------------------------------------------------------------------
Component 1 (Xe), current number of integer/fractional/reaction molecules: 18/0/0, density: 214.66332 [kg/m^3]
	absolute adsorption:  18.00000 [mol/uc],         1.8599 [mol/kg],            244.1860 [mg/g]
	                                                41.6877 [cm^3 STP/g],         36.6475 [cm^3 STP/cm^3]
	excess adsorption:    18.00000 [mol/uc],         1.8599 [mol/kg],            244.1860 [mg/g]
	                                                41.6877 [cm^3 STP/g],         36.6475 [cm^3 STP/cm^3]
----------------------------------------------------------------------------------------------------------------------------------------------------
Degrees of freedom: 87 0 87 0
Number of Framework-atoms:    624
Number of Adsorbates:          29 (29 integer, 0 fractional, 0 reaction)
Number of Cations:              0 (0 integer, 0 fractional, 0 reaction

Current total potential energy:            -67628.2814672274 [K]
	Current Host-Host energy:                     0.0000000000 [K]
	Current Host-Adsorbate energy:           -57952.6114899270 [K]
	Current Host-Cation energy:                   0.0000000000 [K]
	Current Adsorbate-Adsorbate energy:       -3588.7097241112 [K]
	Current Cation-Cation energy:                 0.0000000000 [K]
	Current Adsorbate-Cation energy:              0.0000000000 [K]



[Init] Current cycle: 70 out of 100
========================================================================================================

Net charge: 0 (F: 0, A: 0, C: 0)
Current Box:  26.34300   0.00000   0.00000 [A]
               0.00000  26.34300   0.00000 [A]
               0.00000   0.00000  26.34300 [A]
Box-lengths:  26.34300  26.34300  26.34300 Box-angles:   90.00000  90.00000  90.00000 [degrees]
Volume: 18280.82098 [A^3]

Loadings per component:
----------------------------------------------------------------------------------------------------------------------------------------------------
Component 0 (Kr), current number of integer/fractional/reaction molecules: 8/0/0, density:  60.89585 [kg/m^3]
	absolute adsorption:   8.00000 [mol/uc],         0.8266 [mol/kg],             69.2709 [mg/g]
	                                                18.5279 [cm^3 STP/g],         16.2878 [cm^3 STP/cm^3]
	excess adsorption:     8.00000 [mol/uc],         0.8266 [mol/kg],             69.2709 [mg/g]
	                                                18.5279 [cm^3 STP/g],         16.2878 [cm^3 STP/cm^3]
----------------------------------------------------------------------------------------------------------------------------------------------------
Component 1 (Xe), current number of integer/fractional/reaction molecules: 13/0/0, density: 155.03462 [kg/m^3]
	absolute adsorption:  13.00000 [mol/uc],         1.3433 [mol/kg],            176.3566 [mg/g]
	                                                30.1078 [cm^3 STP/g],         26.4677 [cm^3 STP/cm^3]
	excess adsorption:    13.00000 [mol/uc],         1.3433 [mol/kg],            176.3566 [mg/g]
	                                                30.1078 [cm^3 STP/g],         26.4677 [cm^3 STP/cm^3]
----------------------------------------------------------------------------------------------------------------------------------------------------
Degrees of freedom: 63 0 63 0
Number of Framework-atoms:    624
Number of Adsorbates:          21 (21 integer, 0 fractional, 0 reaction)
Number of Cations:              0 (0 integer, 0 fractional, 0 reaction

Current total potential energy:            -54828.0772872482 [K]
	Current Host-Host energy:                     0.0000000000 [K]
	Current Host-Adsorbate energy:           -47319.3885374461 [K]
	Current Host-Cation energy:                   0.0000000000 [K]
	Current Adsorbate-Adsorbate energy:       -1951.4918423586 [K]
	Current Cation-Cation energy:                 0.0000000000 [K]
	Current Adsorbate-Cation energy:              0.0000000000 [K]



[Init] Current cycle: 80 out of 100
========================================================================================================

Net charge: 0 (F: 0, A: 0, C: 0)
Current Box:  26.34300   0.00000   0.00000 [A]
               0.00000  26.34300   0.00000 [A]
               0.00000   0.00000  26.34300 [A]
Box-lengths:  26.34300  26.34300  26.34300 Box-angles:   90.00000  90.00000  90.00000 [degrees]
Volume: 18280.82098 [A^3]

Loadings per component:
----------------------------------------------------------------------------------------------------------------------------------------------------
Component 0 (Kr), current number of integer/fractional/reaction molecules: 5/0/0, density:  38.05991 [kg/m^3]
	absolute adsorption:   5.00000 [mol/uc],         0.5166 [mol/kg],             43.2943 [mg/g]
	                                                11.5799 [cm^3 STP/g],         10.1799 [cm^3 STP/cm^3]
	excess adsorption:     5.00000 [mol/uc],         0.5166 [mol/kg],             43.2943 [mg/g]
	                                                11.5799 [cm^3 STP/g],         10.1799 [cm^3 STP/cm^3]
----------------------------------------------------------------------------------------------------------------------------------------------------
Component 1 (Xe), current number of integer/fractional/reaction molecules: 12/0/0, density: 143.10888 [kg/m^3]
	absolute adsorption:  12.00000 [mol/uc],         1.2399 [mol/kg],            162.7907 [mg/g]
	                                                27.7918 [cm^3 STP/g],         24.4317 [cm^3 STP/cm^3]
	excess adsorption:    12.00000 [mol/uc],         1.2399 [mol/kg],            162.7907 [mg/g]
	                                                27.7918 [cm^3 STP/g],         24.4317 [cm^3 STP/cm^3]
----------------------------------------------------------------------------------------------------------------------------------------------------
Degrees of freedom: 51 0 51 0
Number of Framework-atoms:    624
Number of Adsorbates:          17 (17 integer, 0 fractional, 0 reaction)
Number of Cations:              0 (0 integer, 0 fractional, 0 reaction

Current total potential energy:            -47628.7753038252 [K]
	Current Host-Host energy:                     0.0000000000 [K]
	Current Host-Adsorbate energy:           -41071.6826302291 [K]
	Current Host-Cation energy:                   0.0000000000 [K]
	Current Adsorbate-Adsorbate energy:       -1218.1614967271 [K]
	Current Cation-Cation energy:                 0.0000000000 [K]
	Current Adsorbate-Cation energy:              0.0000000000 [K]



[Init] Current cycle: 90 out of 100
========================================================================================================

Net charge: 0 (F: 0, A: 0, C: 0)
Current Box:  26.34300   0.00000   0.00000 [A]
               0.00000  26.34300   0.00000 [A]
               0.00000   0.00000  26.34300 [A]
Box-lengths:  26.34300  26.34300  26.34300 Box-angles:   90.00000  90.00000  90.00000 [degrees]
Volume: 18280.82098 [A^3]

Loadings per component:
----------------------------------------------------------------------------------------------------------------------------------------------------
Component 0 (Kr), current number of integer/fractional/reaction molecules: 8/0/0, density:  60.89585 [kg/m^3]
	absolute adsorption:   8.00000 [mol/uc],         0.8266 [mol/kg],             69.2709 [mg/g]
	                                                18.5279 [cm^3 STP/g],         16.2878 [cm^3 STP/cm^3]
	excess adsorption:     8.00000 [mol/uc],         0.8266 [mol/kg],             69.2709 [mg/g]
	                                                18.5279 [cm^3 STP/g],         16.2878 [cm^3 STP/cm^3]
----------------------------------------------------------------------------------------------------------------------------------------------------
Component 1 (Xe), current number of integer/fractional/reaction molecules: 11/0/0, density: 131.18314 [kg/m^3]
	absolute adsorption:  11.00000 [mol/uc],         1.1366 [mol/kg],            149.2248 [mg/g]
	                                                25.4758 [cm^3 STP/g],         22.3957 [cm^3 STP/cm^3]
	excess adsorption:    11.00000 [mol/uc],         1.1366 [mol/kg],            149.2248 [mg/g]
	                                                25.4758 [cm^3 STP/g],         22.3957 [cm^3 STP/cm^3]
----------------------------------------------------------------------------------------------------------------------------------------------------
Degrees of freedom: 57 0 57 0
Number of Framework-atoms:    624
Number of Adsorbates:          19 (19 integer, 0 fractional, 0 reaction)
Number of Cations:              0 (0 integer, 0 fractional, 0 reaction

Current total potential energy:            -52337.2061179241 [K]
	Current Host-Host energy:                     0.0000000000 [K]
	Current Host-Adsorbate energy:           -45843.2149593369 [K]
	Current Host-Cation energy:                   0.0000000000 [K]
	Current Adsorbate-Adsorbate energy:       -1084.6745820475 [K]
	Current Cation-Cation energy:                 0.0000000000 [K]
	Current Adsorbate-Cation energy:              0.0000000000 [K]



Average Properties at Current cycle: 0 out of 100
========================================================================================

Framework surface area:       0.0000000000 [m^2/g]        0.0000000000 [m^2/cm^3]       0.0000000000 [A^2]
	Framework 0 individual surface area:       0.0000000000 [m^2/g]        0.0000000000 [m^2/cm^3]       0.0000000000 [A^2]
	Cation surface area:                       0.0000000000 [m^2/g]        0.0000000000 [m^2/cm^3]       0.0000000000 [A^2]
Compressibility:       0.0000000000 [-]
Henry coefficients
	Component 0: 0 [mol/kg/Pa] (Rosenbluth factor new: 0 [-])
	Component 1: 0 [mol/kg/Pa] (Rosenbluth factor new: 0 [-])
Energy <U_gh>_1-<U_h>_0 from Widom


Current cycle: 0 out of 100
========================================================================================================

Net charge: 0 (F: 0, A: 0, C: 0)
Current Box:  26.34300   0.00000   0.00000 [A]   Average Box:  26.34300   0.00000   0.00000 [A]
               0.00000  26.34300   0.00000 [A]                  0.00000  26.34300   0.00000 [A]
               0.00000   0.00000  26.34300 [A]                  0.00000   0.00000  26.34300 [A]
Box-lengths:   26.34300  26.34300  26.34300 [A] Average:  26.34300  26.34300  26.34300 [A]
Box-angles:   90.00000  90.00000  90.00000 [degrees] Average:  90.00000  90.00000  90.00000 [degrees]
Volume: 18280.82098 [A^3] Average Volume: 18280.82098 [A^3]

Loadings per component:
----------------------------------------------------------------------------------------------------------------------------------------------------
Component 0 (Kr), current number of integer/fractional/reaction molecules: 13/0/0 (avg.  13.00000), density:  98.95576 (avg.  98.95576) [kg/m^3]
	absolute adsorption:  13.00000 (avg.  13.00000) [mol/uc],   1.3432596913 (avg.   1.3432596913) [mol/kg], 112.5651621294 (avg. 112.5651621294) [mg/g]
	                      30.1077901431 (avg.  30.1077901431) [cm^3 STP/g],   26.4676609643 (avg.  26.4676609643) [cm^3 STP/cm^3]
	excess adsorption:    13.0000000000 (avg.  13.0000000000) [mol/uc],   1.3432596913 (avg.   1.3432596913) [mol/kg], 112.5651621294 (avg. 112.5651621294) [mg/g]
	                      30.1077901431 (avg.  30.1077901431) [cm^3 STP/g],   26.4676609643 (avg.  26.4676609643) [cm^3 STP/cm^3]
Component 1 (Xe), current number of integer/fractional/reaction molecules: 7/0/0 (avg.   7.00000), density:  83.48018 (avg.  83.48018) [kg/m^3]
	absolute adsorption:   7.00000 (avg.   7.00000) [mol/uc],   0.7232936799 (avg.   0.7232936799) [mol/kg],  94.9612272368 (avg.  94.9612272368) [mg/g]
	                      16.2118870001 (avg.  16.2118870001) [cm^3 STP/g],   14.2518174423 (avg.  14.2518174423) [cm^3 STP/cm^3]
	excess adsorption:     7.0000000000 (avg.   7.0000000000) [mol/uc],   0.7232936799 (avg.   0.7232936799) [mol/kg],  94.9612272368 (avg.  94.9612272368) [mg/g]
	                      16.2118870001 (avg.  16.2118870001) [cm^3 STP/g],   14.2518174423 (avg.  14.2518174423) [cm^3 STP/cm^3]
----------------------------------------------------------------------------------------------------------------------------------------------------
Degrees of freedom: 60 0 60 0
Number of Framework-atoms:    624
Number of Adsorbates:          20 (20 integer, 0 fractional, 0 reaction)
Number of Cations:              0 (0 integer, 0 fractional, 0 reaction)

Current total potential energy:            -46506.2377813623 [K]  (avg.      -46506.2377813623)
	Current Host-Host energy:                     0.0000000000 [K]  (avg.           0.0000000000)
	Current Host-Adsorbate energy:           -40135.2040140678 [K]  (avg.      -40135.2040140678)
	Current Host-Cation energy:                   0.0000000000 [K]  (avg.           0.0000000000)
	Current Adsorbate-Adsorbate energy:       -1015.3599432816 [K]  (avg.       -1015.3599432816)
	Current Cation-Cation energy:                 0.0000000000 [K]  (avg.           0.0000000000)
	Current Adsorbate-Cation energy:              0.0000000000 [K]  (avg.           0.0000000000)



Current cycle: 10 out of 100
========================================================================================================

Net charge: 0 (F: 0, A: 0, C: 0)
Current Box:  26.34300   0.00000   0.00000 [A]   Average Box:  26.34300   0.00000   0.00000 [A]
               0.00000  26.34300   0.00000 [A]                  0.00000  26.34300   0.00000 [A]
               0.00000   0.00000  26.34300 [A]                  0.00000   0.00000  26.34300 [A]
Box-lengths:   26.34300  26.34300  26.34300 [A] Average:  26.34300  26.34300  26.34300 [A]
Box-angles:   90.00000  90.00000  90.00000 [degrees] Average:  90.00000  90.00000  90.00000 [degrees]
Volume: 18280.82098 [A^3] Average Volume: 18280.82098 [A^3]

Loadings per component:
----------------------------------------------------------------------------------------------------------------------------------------------------
Component 0 (Kr), current number of integer/fractional/reaction molecules: 4/0/0 (avg.   7.18182), density:  30.44793 (avg.  54.66787) [kg/m^3]
	absolute adsorption:   4.00000 (avg.   7.18182) [mol/uc],   0.4133106742 (avg.   0.7420805287) [mol/kg],  34.6354345014 (avg.  62.1863483092) [mg/g]
	                       9.2639354286 (avg.  16.6329749742) [cm^3 STP/g],    8.1438956813 (avg.  14.6219945188) [cm^3 STP/cm^3]
	excess adsorption:     4.0000000000 (avg.   7.1818181818) [mol/uc],   0.4133106742 (avg.   0.7420805287) [mol/kg],  34.6354345014 (avg.  62.1863483092) [mg/g]
	                       9.2639354286 (avg.  16.6329749742) [cm^3 STP/g],    8.1438956813 (avg.  14.6219945188) [cm^3 STP/cm^3]
Component 1 (Xe), current number of integer/fractional/reaction molecules: 12/0/0 (avg.   9.45455), density: 143.10888 (avg. 112.75245) [kg/m^3]
	absolute adsorption:  12.00000 (avg.   9.45455) [mol/uc],   1.2399320227 (avg.   0.9769161391) [mol/kg], 162.7906752631 (avg. 128.2593199043) [mg/g]
	                      27.7918062859 (avg.  21.8965746495) [cm^3 STP/g],   24.4316870440 (avg.  19.2492079741) [cm^3 STP/cm^3]
	excess adsorption:    12.0000000000 (avg.   9.4545454545) [mol/uc],   1.2399320227 (avg.   0.9769161391) [mol/kg], 162.7906752631 (avg. 128.2593199043) [mg/g]
	                      27.7918062859 (avg.  21.8965746495) [cm^3 STP/g],   24.4316870440 (avg.  19.2492079741) [cm^3 STP/cm^3]
----------------------------------------------------------------------------------------------------------------------------------------------------
Degrees of freedom: 48 0 48 0
Number of Framework-atoms:    624
Number of Adsorbates:          16 (16 integer, 0 fractional, 0 reaction)
Number of Cations:              0 (0 integer, 0 fractional, 0 reaction)

Current total potential energy:            -45860.3736346257 [K]  (avg.      -42997.5340349663)
	Current Host-Host energy:                     0.0000000000 [K]  (avg.           0.0000000000)
	Current Host-Adsorbate energy:           -39997.7267948248 [K]  (avg.      -36946.7349138014)
	Current Host-Cation energy:                   0.0000000000 [K]  (avg.           0.0000000000)
	Current Adsorbate-Adsorbate energy:        -571.3235528424 [K]  (avg.        -792.9712406035)
	Current Cation-Cation energy:                 0.0000000000 [K]  (avg.           0.0000000000)
	Current Adsorbate-Cation energy:              0.0000000000 [K]  (avg.           0.0000000000)



Current cycle: 20 out of 100
========================================================================================================

Net charge: 0 (F: 0, A: 0, C: 0)
Current Box:  26.34300   0.00000   0.00000 [A]   Average Box:  26.34300   0.00000   0.00000 [A]
               0.00000  26.34300   0.00000 [A]                  0.00000  26.34300   0.00000 [A]
               0.00000   0.00000  26.34300 [A]                  0.00000   0.00000  26.34300 [A]
Box-lengths:   26.34300  26.34300  26.34300 [A] Average:  26.34300  26.34300  26.34300 [A]
Box-angles:   90.00000  90.00000  90.00000 [degrees] Average:  90.00000  90.00000  90.00000 [degrees]
Volume: 18280.82098 [A^3] Average Volume: 18280.82098 [A^3]

Loadings per component:
----------------------------------------------------------------------------------------------------------------------------------------------------
Component 0 (Kr), current number of integer/fractional/reaction molecules: 3/0/0 (avg.   5.57143), density:  22.83594 (avg.  42.40961) [kg/m^3]
	absolute adsorption:   3.00000 (avg.   5.57143) [mol/uc],   0.3099830057 (avg.   0.5756827248) [mol/kg],  25.9765758760 (avg.  48.2422123412) [mg/g]
	                       6.9479515715 (avg.  12.9033386328) [cm^3 STP/g],    6.1079217610 (avg.  11.3432832704) [cm^3 STP/cm^3]
	excess adsorption:     3.0000000000 (avg.   5.5714285714) [mol/uc],   0.3099830057 (avg.   0.5756827248) [mol/kg],  25.9765758760 (avg.  48.2422123412) [mg/g]
	                       6.9479515715 (avg.  12.9033386328) [cm^3 STP/g],    6.1079217610 (avg.  11.3432832704) [cm^3 STP/cm^3]
Component 1 (Xe), current number of integer/fractional/reaction molecules: 12/0/0 (avg.  11.23810), density: 143.10888 (avg. 134.02260) [kg/m^3]
	absolute adsorption:  12.00000 (avg.  11.23810) [mol/uc],   1.2399320227 (avg.   1.1612061800) [mol/kg], 162.7906752631 (avg. 152.4547593734) [mg/g]
	                      27.7918062859 (avg.  26.0272471567) [cm^3 STP/g],   24.4316870440 (avg.  22.8804688190) [cm^3 STP/cm^3]
	excess adsorption:    12.0000000000 (avg.  11.2380952381) [mol/uc],   1.2399320227 (avg.   1.1612061800) [mol/kg], 162.7906752631 (avg. 152.4547593734) [mg/g]
	                      27.7918062859 (avg.  26.0272471567) [cm^3 STP/g],   24.4316870440 (avg.  22.8804688190) [cm^3 STP/cm^3]
----------------------------------------------------------------------------------------------------------------------------------------------------
Degrees of freedom: 45 0 45 0
Number of Framework-atoms:    624
Number of Adsorbates:          15 (15 integer, 0 fractional, 0 reaction)
Number of Cations:              0 (0 integer, 0 fractional, 0 reaction)

Current total potential energy:            -41195.8539051066 [K]  (avg.      -44262.2322045080)
	Current Host-Host energy:                     0.0000000000 [K]  (avg.           0.0000000000)
	Current Host-Adsorbate energy:           -35483.6031353494 [K]  (avg.      -38090.8954131253)
	Current Host-Cation energy:                   0.0000000000 [K]  (avg.           0.0000000000)
	Current Adsorbate-Adsorbate energy:        -468.3248062618 [K]  (avg.        -860.2923960341)
	Current Cation-Cation energy:                 0.0000000000 [K]  (avg.           0.0000000000)
	Current Adsorbate-Cation energy:              0.0000000000 [K]  (avg.           0.0000000000)



Current cycle: 30 out of 100
========================================================================================================

Net charge: 0 (F: 0, A: 0, C: 0)
[...]

Average Cation Intra charge-charge Coulomb energy:
====================================
	Block[ 0]            0.00000 [K]
	Block[ 1]            0.00000 [K]
	Block[ 2]            0.00000 [K]
	Block[ 3]            0.00000 [K]
	Block[ 4]            0.00000 [K]
	------------------------------------------------------------------------------
	Average              0.00000 [K] +/-            0.00000 [K]

Average Cation Intra charge-bonddipole Coulomb energy:
====================================
	Block[ 0]            0.00000 [K]
	Block[ 1]            0.00000 [K]
	Block[ 2]            0.00000 [K]
	Block[ 3]            0.00000 [K]
	Block[ 4]            0.00000 [K]
	------------------------------------------------------------------------------
	Average              0.00000 [K] +/-            0.00000 [K]

Average Cation Intra bonddipole-bonddipole Coulomb energy:
====================================
	Block[ 0]            0.00000 [K]
	Block[ 1]            0.00000 [K]
	Block[ 2]            0.00000 [K]
	Block[ 3]            0.00000 [K]
	Block[ 4]            0.00000 [K]
	------------------------------------------------------------------------------
	Average              0.00000 [K] +/-            0.00000 [K]

Average Host-Host energy:
=========================
	Block[ 0] 0.00000            Van der Waals: 0.00000            Coulomb: 0.00000            [K]
	Block[ 1] 0.00000            Van der Waals: 0.00000            Coulomb: 0.00000            [K]
	Block[ 2] 0.00000            Van der Waals: 0.00000            Coulomb: 0.00000            [K]
	Block[ 3] 0.00000            Van der Waals: 0.00000            Coulomb: 0.00000            [K]
	Block[ 4] 0.00000            Van der Waals: 0.00000            Coulomb: 0.00000            [K]
	------------------------------------------------------------------------------
	Average   0.00000            Van der Waals: 0.000000           Coulomb: 0.00000            [K]
	      +/- 0.00000                       +/- 0.000000                +/- 0.00000            [K]

Average Adsorbate-Adsorbate energy:
===================================
	Block[ 0] -879.89078         Van der Waals: -879.89078         Coulomb: 0.00000            [K]
	Block[ 1] -758.67759         Van der Waals: -758.67759         Coulomb: 0.00000            [K]
	Block[ 2] -984.97605         Van der Waals: -984.97605         Coulomb: 0.00000            [K]
	Block[ 3] -996.91069         Van der Waals: -996.91069         Coulomb: 0.00000            [K]
	Block[ 4] -975.86414         Van der Waals: -975.86414         Coulomb: 0.00000            [K]
	------------------------------------------------------------------------------
	Average   -919.26385         Van der Waals: -919.263850        Coulomb: 0.00000            [K]
	      +/- 180.86217                     +/- 180.862168              +/- 0.00000            [K]

Average Cation-Cation energy:
=============================
	Block[ 0] 0.00000            Van der Waals: 0.00000            Coulomb: 0.00000            [K]
	Block[ 1] 0.00000            Van der Waals: 0.00000            Coulomb: 0.00000            [K]
	Block[ 2] 0.00000            Van der Waals: 0.00000            Coulomb: 0.00000            [K]
	Block[ 3] 0.00000            Van der Waals: 0.00000            Coulomb: 0.00000            [K]
	Block[ 4] 0.00000            Van der Waals: 0.00000            Coulomb: 0.00000            [K]
	------------------------------------------------------------------------------
	Average   0.00000            Van der Waals: 0.000000           Coulomb: 0.00000            [K]
	      +/- 0.00000                       +/- 0.000000                +/- 0.00000            [K]

Average Host-Adsorbate energy:
==============================
	Block[ 0] -38221.26003       Van der Waals: -38221.26003       Coulomb: 0.00000            [K]
	Block[ 1] -40856.34069       Van der Waals: -40856.34069       Coulomb: 0.00000            [K]
	Block[ 2] -46077.85951       Van der Waals: -46077.85951       Coulomb: 0.00000            [K]
	Block[ 3] -43865.26472       Van der Waals: -43865.26472       Coulomb: 0.00000            [K]
	Block[ 4] -41056.89688       Van der Waals: -41056.89688       Coulomb: 0.00000            [K]
	------------------------------------------------------------------------------
	Average   -42015.52436       Van der Waals: -42015.524364      Coulomb: 0.00000            [K]
	      +/- 5409.85926                    +/- 5409.859259             +/- 0.00000            [K]

Average Host-Cation energy:
===========================
	Block[ 0] 0.00000            Van der Waals: 0.00000            Coulomb: 0.00000            [K]
	Block[ 1] 0.00000            Van der Waals: 0.00000            Coulomb: 0.00000            [K]
	Block[ 2] 0.00000            Van der Waals: 0.00000            Coulomb: 0.00000            [K]
	Block[ 3] 0.00000            Van der Waals: 0.00000            Coulomb: 0.00000            [K]
	Block[ 4] 0.00000            Van der Waals: 0.00000            Coulomb: 0.00000            [K]
	------------------------------------------------------------------------------
	Average   0.00000            Van der Waals: 0.000000           Coulomb: 0.00000            [K]
	      +/- 0.00000                       +/- 0.000000                +/- 0.00000            [K]

Average Adsorbate-Cation energy:
================================
	Block[ 0] 0.00000            Van der Waals: 0.00000            Coulomb: 0.00000            [K]
	Block[ 1] 0.00000            Van der Waals: 0.00000            Coulomb: 0.00000            [K]
	Block[ 2] 0.00000            Van der Waals: 0.00000            Coulomb: 0.00000            [K]
	Block[ 3] 0.00000            Van der Waals: 0.00000            Coulomb: 0.00000            [K]
	Block[ 4] 0.00000            Van der Waals: 0.00000            Coulomb: 0.00000            [K]
	------------------------------------------------------------------------------
	Average   0.00000            Van der Waals: 0.000000           Coulomb: 0.00000            [K]
	      +/- 0.00000                       +/- 0.000000                +/- 0.00000            [K]

Host polarization energy:
=======================
	Block[ 0]            0.00000 [K]
	Block[ 1]            0.00000 [K]
	Block[ 2]            0.00000 [K]
	Block[ 3]            0.00000 [K]
	Block[ 4]            0.00000 [K]
	------------------------------------------------------------------------------
	Average              0.00000 [K] +/-            0.00000 [K]

Adsorbate polarization energy:
=======================
	Block[ 0]            0.00000 [K]
	Block[ 1]            0.00000 [K]
	Block[ 2]            0.00000 [K]
	Block[ 3]            0.00000 [K]
	Block[ 4]            0.00000 [K]
	------------------------------------------------------------------------------
	Average              0.00000 [K] +/-            0.00000 [K]

Cation polarization energy:
=======================
	Block[ 0]            0.00000 [K]
	Block[ 1]            0.00000 [K]
	Block[ 2]            0.00000 [K]
	Block[ 3]            0.00000 [K]
	Block[ 4]            0.00000 [K]
	------------------------------------------------------------------------------
	Average              0.00000 [K] +/-            0.00000 [K]

Host back-polarization energy:
=======================
	Block[ 0]            0.00000 [K]
	Block[ 1]            0.00000 [K]
	Block[ 2]            0.00000 [K]
	Block[ 3]            0.00000 [K]
	Block[ 4]            0.00000 [K]
	------------------------------------------------------------------------------
	Average              0.00000 [K] +/-            0.00000 [K]

Adsorbate back-polarization energy:
=======================
	Block[ 0]            0.00000 [K]
	Block[ 1]            0.00000 [K]
	Block[ 2]            0.00000 [K]
	Block[ 3]            0.00000 [K]
	Block[ 4]            0.00000 [K]
	------------------------------------------------------------------------------
	Average              0.00000 [K] +/-            0.00000 [K]

Cation back-polarization energy:
=======================
	Block[ 0]            0.00000 [K]
	Block[ 1]            0.00000 [K]
	Block[ 2]            0.00000 [K]
	Block[ 3]            0.00000 [K]
	Block[ 4]            0.00000 [K]
	------------------------------------------------------------------------------
	Average              0.00000 [K] +/-            0.00000 [K]

Tail-correction energy:
=======================
	Block[ 0]        -5314.40032 [K]
	Block[ 1]        -5338.05919 [K]
	Block[ 2]        -5494.71194 [K]
	Block[ 3]        -5412.00019 [K]
	Block[ 4]        -5360.94749 [K]
	------------------------------------------------------------------------------
	Average          -5384.02383 [K] +/-          128.14752 [K]

Distance-constraints energy:
=======================
	Block[ 0]            0.00000 [K]
	Block[ 1]            0.00000 [K]
	Block[ 2]            0.00000 [K]
	Block[ 3]            0.00000 [K]
	Block[ 4]            0.00000 [K]
	------------------------------------------------------------------------------
	Average              0.00000 [K] +/-            0.00000 [K]

Angle-constraints energy:
=======================
	Block[ 0]            0.00000 [K]
	Block[ 1]            0.00000 [K]
	Block[ 2]            0.00000 [K]
	Block[ 3]            0.00000 [K]
	Block[ 4]            0.00000 [K]
	------------------------------------------------------------------------------
	Average              0.00000 [K] +/-            0.00000 [K]

Dihedral-constraints energy:
=======================
	Block[ 0]            0.00000 [K]
	Block[ 1]            0.00000 [K]
	Block[ 2]            0.00000 [K]
	Block[ 3]            0.00000 [K]
	Block[ 4]            0.00000 [K]
	------------------------------------------------------------------------------
	Average              0.00000 [K] +/-            0.00000 [K]

Inversion-bend constraints energy:
=======================
	Block[ 0]            0.00000 [K]
	Block[ 1]            0.00000 [K]
	Block[ 2]            0.00000 [K]
	Block[ 3]            0.00000 [K]
	Block[ 4]            0.00000 [K]
	------------------------------------------------------------------------------
	Average              0.00000 [K] +/-            0.00000 [K]

Out-of-plane-distance constraints energy:
=======================
	Block[ 0]            0.00000 [K]
	Block[ 1]            0.00000 [K]
	Block[ 2]            0.00000 [K]
	Block[ 3]            0.00000 [K]
	Block[ 4]            0.00000 [K]
	------------------------------------------------------------------------------
	Average              0.00000 [K] +/-            0.00000 [K]

Exclusion-constraints energy:
=======================
	Block[ 0]            0.00000 [K]
	Block[ 1]            0.00000 [K]
	Block[ 2]            0.00000 [K]
	Block[ 3]            0.00000 [K]
	Block[ 4]            0.00000 [K]
	------------------------------------------------------------------------------
	Average              0.00000 [K] +/-            0.00000 [K]

Total energy:
=============
	Block[ 0]       -44415.55112 [K]
	Block[ 1]       -46953.07747 [K]
	Block[ 2]       -52557.54750 [K]
	Block[ 3]       -50274.17560 [K]
	Block[ 4]       -47393.70851 [K]
	------------------------------------------------------------------------------
	Average         -48318.81204 [K] +/-         5638.92318 [K]

Number of molecules:
====================

Component 0 [Kr]
-------------------------------------------------------------
	Block[ 0] 5.70000            [-]
	Block[ 1] 5.25000            [-]
	Block[ 2] 5.85000            [-]
	Block[ 3] 7.30000            [-]
	Block[ 4] 7.45000            [-]
	------------------------------------------------------------------------------
	Average                                      6.3100000000 +/-       1.7859451279 [-]
	Average loading absolute [molecules/unit cell]        6.3100000000 +/-       1.7859451279 [-]
	Average loading absolute [mol/kg framework]          0.6519975886 +/-       0.1845375462 [-]
	Average loading absolute [milligram/gram framework]         54.6373979259 +/-      15.4642463754 [-]
	Average loading absolute [cm^3 (STP)/gr framework]         14.6138581387 +/-       4.1362200861 [-]
	Average loading absolute [cm^3 (STP)/cm^3 framework]         12.8469954373 +/-       3.6361377036 [-]

	Block[ 0] 5.70000            [-]
	Block[ 1] 5.25000            [-]
	Block[ 2] 5.85000            [-]
	Block[ 3] 7.30000            [-]
	Block[ 4] 7.45000            [-]
	------------------------------------------------------------------------------
	Average                                      6.3100000000 +/-       1.7859451279 [-]
	Average loading excess [molecules/unit cell]        6.3100000000 +/-       1.7859451279 [-]
	Average loading excess [mol/kg framework]          0.6519975886 +/-       0.1845375462 [-]
	Average loading excess [milligram/gram framework]         54.6373979259 +/-      15.4642463754 [-]
	Average loading excess [cm^3 (STP)/gr framework]         14.6138581387 +/-       4.1362200861 [-]
	Average loading excess [cm^3 (STP)/cm^3 framework]         12.8469954373 +/-       3.6361377036 [-]

Component 1 [Xe]
-------------------------------------------------------------
	Block[ 0] 11.20000           [-]
	Block[ 1] 11.80000           [-]
	Block[ 2] 13.55000           [-]
	Block[ 3] 11.45000           [-]
	Block[ 4] 10.65000           [-]
	------------------------------------------------------------------------------
	Average                                     11.7300000000 +/-       1.9683495625 [-]
	Average loading absolute [molecules/unit cell]       11.7300000000 +/-       1.9683495625 [-]
	Average loading absolute [mol/kg framework]          1.2120335522 +/-       0.2033849712 [-]
	Average loading absolute [milligram/gram framework]        159.1278850697 +/-      26.7024128688 [-]
	Average loading absolute [cm^3 (STP)/gr framework]         27.1664906445 +/-       4.5586658119 [-]
	Average loading absolute [cm^3 (STP)/cm^3 framework]         23.8819740855 +/-       4.0075083752 [-]

	Block[ 0] 11.20000           [-]
	Block[ 1] 11.80000           [-]
	Block[ 2] 13.55000           [-]
	Block[ 3] 11.45000           [-]
	Block[ 4] 10.65000           [-]
	------------------------------------------------------------------------------
	Average                                     11.7300000000 +/-       1.9683495625 [-]
	Average loading excess [molecules/unit cell]       11.7300000000 +/-       1.9683495625 [-]
	Average loading excess [mol/kg framework]          1.2120335522 +/-       0.2033849712 [-]
	Average loading excess [milligram/gram framework]        159.1278850697 +/-      26.7024128688 [-]
	Average loading excess [cm^3 (STP)/gr framework]         27.1664906445 +/-       4.5586658119 [-]
	Average loading excess [cm^3 (STP)/cm^3 framework]         23.8819740855 +/-       4.0075083752 [-]


Average Widom Rosenbluth factor:
================================
	Block[ 0] 0 [-]
	Block[ 1] 0 [-]
	Block[ 2] 0 [-]
	Block[ 3] 0 [-]
	Block[ 4] 0 [-]
	------------------------------------------------------------------------------
	[Kr] Average Widom Rosenbluth-weight:   0 +/- 0.000000 [-]
	Block[ 0] 0 [-]
	Block[ 1] 0 [-]
	Block[ 2] 0 [-]
	Block[ 3] 0 [-]
	Block[ 4] 0 [-]
	------------------------------------------------------------------------------
	[Xe] Average Widom Rosenbluth-weight:   0 +/- 0.000000 [-]

Average Widom chemical potential:
=================================
	Block[ 0] 0 [-]
	Block[ 1] 0 [-]
	Block[ 2] 0 [-]
	Block[ 3] 0 [-]
	Block[ 4] 0 [-]
	------------------------------------------------------------------------------
	[Kr] Average chemical potential:   0 +/- 0.000000 [K]
	Block[ 0] 0 [-]
	Block[ 1] 0 [-]
	Block[ 2] 0 [-]
	Block[ 3] 0 [-]
	Block[ 4] 0 [-]
	------------------------------------------------------------------------------
	[Xe] Average chemical potential:   0 +/- 0.000000 [K]

Average Widom Ideal-gas contribution:
=====================================
	Block[ 0] 0 [-]
	Block[ 1] 0 [-]
	Block[ 2] 0 [-]
	Block[ 3] 0 [-]
	Block[ 4] 0 [-]
	------------------------------------------------------------------------------
	[Kr] Average Widom Ideal-gas chemical potential:   0 +/- 0.000000 [-]
	Block[ 0] 0 [-]
	Block[ 1] 0 [-]
	Block[ 2] 0 [-]
	Block[ 3] 0 [-]
	Block[ 4] 0 [-]
	------------------------------------------------------------------------------
	[Xe] Average Widom Ideal-gas chemical potential:   0 +/- 0.000000 [-]

Average Widom excess contribution:
==================================
	Block[ 0] 0 [-]
	Block[ 1] 0 [-]
	Block[ 2] 0 [-]
	Block[ 3] 0 [-]
	Block[ 4] 0 [-]
	------------------------------------------------------------------------------
	[Kr] Average Widom excess chemical potential:   0 +/- 0.000000 [-]
	Block[ 0] 0 [-]
	Block[ 1] 0 [-]
	Block[ 2] 0 [-]
	Block[ 3] 0 [-]
	Block[ 4] 0 [-]
	------------------------------------------------------------------------------
	[Xe] Average Widom excess chemical potential:   0 +/- 0.000000 [-]

Average Gibbs Widom Rosenbluth factor:
======================================
	Block[ 0] 0 [-]
	Block[ 1] 0 [-]
	Block[ 2] 0 [-]
	Block[ 3] 0 [-]
	Block[ 4] 0 [-]
	------------------------------------------------------------------------------
	[Kr] Average Gibbs Widom Rosenbluth-weight:   0 +/- 0.000000 [-]
	Block[ 0] 0 [-]
	Block[ 1] 0 [-]
	Block[ 2] 0 [-]
	Block[ 3] 0 [-]
	Block[ 4] 0 [-]
	------------------------------------------------------------------------------
	[Xe] Average Gibbs Widom Rosenbluth-weight:   0 +/- 0.000000 [-]

Average Gibbs Widom chemical potential:
=======================================
	Block[ 0] 0 [-]
	Block[ 1] 0 [-]
	Block[ 2] 0 [-]
	Block[ 3] 0 [-]
	Block[ 4] 0 [-]
	------------------------------------------------------------------------------
	[Kr] Average Gibbs chemical potential:   0 +/- 0.000000 [K]
	Block[ 0] 0 [-]
	Block[ 1] 0 [-]
	Block[ 2] 0 [-]
	Block[ 3] 0 [-]
	Block[ 4] 0 [-]
	------------------------------------------------------------------------------
	[Xe] Average Gibbs chemical potential:   0 +/- 0.000000 [K]

Average Gibbs Widom Ideal-gas contribution:
===========================================
	Block[ 0] 0 [-]
	Block[ 1] 0 [-]
	Block[ 2] 0 [-]
	Block[ 3] 0 [-]
	Block[ 4] 0 [-]
	------------------------------------------------------------------------------
	[Kr] Average Gibbs Ideal-gas chemical potential:   0 +/- 0.000000 [-]
	Block[ 0] 0 [-]
	Block[ 1] 0 [-]
	Block[ 2] 0 [-]
	Block[ 3] 0 [-]
	Block[ 4] 0 [-]
	------------------------------------------------------------------------------
	[Xe] Average Gibbs Ideal-gas chemical potential:   0 +/- 0.000000 [-]

Average Gibbs Widom excess contribution:
===========================================
	Block[ 0] 0 [-]
	Block[ 1] 0 [-]
	Block[ 2] 0 [-]
	Block[ 3] 0 [-]
	Block[ 4] 0 [-]
	------------------------------------------------------------------------------
	[Kr] Average Gibbs excess chemical potential:   0 +/- 0.000000 [-]
	Block[ 0] 0 [-]
	Block[ 1] 0 [-]
	Block[ 2] 0 [-]
	Block[ 3] 0 [-]
	Block[ 4] 0 [-]
	------------------------------------------------------------------------------
	[Xe] Average Gibbs excess chemical potential:   0 +/- 0.000000 [-]

Average Henry coefficient:
==========================
	Block[ 0] 0 [mol/kg/Pa]
	Block[ 1] 0 [mol/kg/Pa]
	Block[ 2] 0 [mol/kg/Pa]
	Block[ 3] 0 [mol/kg/Pa]
	Block[ 4] 0 [mol/kg/Pa]
	------------------------------------------------------------------------------
	[Kr] Average Henry coefficient:  0 +/- 0 [mol/kg/Pa]
	Block[ 0] 0 [mol/kg/Pa]
	Block[ 1] 0 [mol/kg/Pa]
	Block[ 2] 0 [mol/kg/Pa]
	Block[ 3] 0 [mol/kg/Pa]
	Block[ 4] 0 [mol/kg/Pa]
	------------------------------------------------------------------------------
	[Xe] Average Henry coefficient:  0 +/- 0 [mol/kg/Pa]

Average adsorption energy <U_gh>_1-<U_h>_0 obtained from Widom-insertion:
(Note: the total heat of adsorption is dH=<U_gh>_1-<U_h>_0 - <U_g> - RT)
=========================================================================

Simulation finished,  0 warnings


Wed Nov 18 15:24:34 2020
Simulation finished on Wednesday, November 18.
The end time was 03:24 PM.

