Compiler and run-time data
===========================================================================
RASPA 2.0.37
Compiled as a 64-bits application
Compiler: gcc 9.3.0
Compile Date = Mar 18 2020, Compile Time = 13:46:53

Fri Nov 13 18:38:18 2020
Simulation started on Friday, November 13.
The start time was 06:38 PM.

Cpu data:    x86_64
Cpu Model:   MacBookPro11,4
Host name:   B126028.local
OS release:  19.6.0
OS type:     Darwin
OS version:  19G2021


Simulation
===========================================================================
Dimensions: 3
Random number seed: 1605289098
RASPA directory set to: /Users/leopold/Personal/Programmierung/qm-codes/RASPA2/src/.libs
String appended to output-files: 
Number of cycles: 300
Number of initializing cycles: 300
Number of equilibration cycles: 0
Print every: 30
Rectangular boundary condition applied
Timestep: 0.000500
	Degrees of freedom:                        0
	Translational Degrees of freedom:          0
	Rotational Degrees of freedom:             0
	Degrees of freedom Framework:              0


Mutual consistent basic set of units:
======================================
Unit of temperature: Kelvin
Unit of length:      1e-10 [m]
Unit of time:        1e-12 [s]
Unit of mass:        1.66054e-27 [kg]
Unit of charge:      1.60218e-19 [C/particle]

Derived units and their conversion factors:
===========================================
Unit of energy:              1.66054e-23 [J]
Unit of force:               1.66054e-13 [N]
Unit of pressure:            1.66054e+07 [Pa]
Unit of velocity:            100 [m/s]
Unit of acceleration:        1e-08 [m^2/s]
Unit of diffusion:           1e-08 [m^2/s]
Unit of dipole moment:       1.60218e-29 [C.m]
Unit of electric potential:  0.000103643 [V]
Unit of electric field:      1.03643e+06 [V]
Unit of polarizability:      1.54587e-35 [-]
Unit of Coulomb potential:   167101.0800066561  [K]
Unit of dielectric constant: 0.0000154587       [s^2 C^2/(kg m^3)]
Unit of wave vectors:        5.3088374589       [cm^1]
Boltzmann constant:          0.8314464919       [-]

Internal conversion factors:
===========================================
Energy to Kelvin:                                    1.2027242847
FH correction factor                                 2.0211930949
Heat capacity conversion factor:                    10.0000088723
From Debye to internal units:                        4.8032067991
Isothermal compressibility conversion factor:        0.0000000602

Energy conversion factors:
===========================================
From mdyne/A to kcal/mol/A^2:           143.933
From mdyne/A to kj/mol/A^2:             602.214
From mdyne/A to K/A^2:                  72429.7
From mdyne A/rad^2 to kcal/mol/deg^2:   0.0438444


Properties computed
===========================================================================
Movies: no
Radial Distribution Function: no
Number of molecules GCMC histogram: no
Histogram of the molecule positions: no
Free energy profiles: no
Pore Size Distribution Function: no
End-to-end distance: no
Histogram of the energy of the system: no
Compute thermodynamic factors: no
Framework spacing histograms: no
Residence times histograms: no
Distance histograms: no
Bend Angle histograms: no
Dihedral angle histograms: no
Angle between planes histograms: no
Molecule properties: no
Infra-red spectra: no
Mean-squared displacement using modified order-N algorithm: no
Velocity-autocorrelation function modified order-N algorithm: no
Rotational velocity-autocorrelation function modified order-N algorithm: no
Molecular orientation-autocorrelation function modified order-N algorithm: no
Bond orientation-autocorrelation function modified order-N algorithm: no
Mean-squared displacement (conventional algorithm): no
Velocity-autocorrelation function (conventional algorithm): no
3D density grid for adsorbates: no
Compute cation an/or adsorption sites: no
dcTST snapshots: no
Compute pressure and stress: no


VTK
===========================================================================
VTK fractional-range position framework atoms: [-0.001000,1.001000] [-0.001000,1.001000] [-0.001000,1.001000]
VTK fractional-range position framework bonds: [-0.151000,1.151000] [-0.151000,1.151000] [-0.151000,1.151000]
VTK fractional-range com-position adsorbate molecules: [-0.101000,1.101000] [-0.101000,1.101000] [-0.101000,1.101000]
VTK fractional-range com-position cation molecules: [-0.101000,1.101000] [-0.101000,1.101000] [-0.101000,1.101000]
	3D free energy grid made for the full simulation-cell


Thermo/Baro-stat NHC parameters
===========================================================================
External temperature: 87 [K]
Beta: 0.0138244 [energy unit]
External Pressure: 100000 [Pa]


Thermostat chain-length: 3
Timescale parameter for thermostat: 0.150000 [ps]
Barostat chain-length:   3
Timescale parameter for barostat:   0.150000 [ps]

Number of Yoshida-Suzuki decomposition steps: 5
Number of respa steps: 5


Method and settings for electrostatics
===============================================================================
Dielectric constant of the medium : 1.000000
Charge from charge-equilibration: no
No electrostatics


CFC-RXMC parameters
===========================================================================
Number of reactions: 0


Rattle parameters
===========================================================================
Distance constraint type: r^2-r^2_0
Bend angle constraint type: theta-theta_0
Dihedral angle constraint type: phi-phi_0
Inversion-bend angle constraint type: chi-chi_0
Out-of-plane distance constraint type: r-r_0


Spectra parameters
===========================================================================
Compute normal modes: no


Minimization parameters
===========================================================================
Generalized coordinates are: Cartesian center-of-mass, elements of the orientational matrix p1,p2,p3 and strain
Potential derivatives are evaluated: analytically
Translation of the system is removed from the generalized Hessian: no
Rotation of the system is removed from the generalized Hessian: no
Maximum step-length: 0.3
Convergence factor: 1
Maximum number of minimization steps: 10000
Use gradients in the line-minimizations: yes
RMS gradient tolerance: 1e-06
Maximum gradient tolerance: 1e-06

Distance constraints: 0
Angle constraints: 0
Dihedral constraints: 0

Improper dihedral constraints: 0

Inversion-bend constraints: 0

Out-of-plane constraints: 0

Harmonic distance constraints: 0
Harmonic angle constraints: 0
Harmonic dihedral constraints: 0

Dihedral mid-point measurements: 0

All framework atoms are fixed

Fixed adsorbate atoms:  
Fixed adsorbate groups (center-of-mass):  
Fixed adsorbate groups (orientation):  

Fixed cation atoms:  
Fixed cation groups (center-of-mass):  
Fixed cation groups (orientation):  


dcTST parameters
===========================================================================
Free energy profiles computed: no
Free energy profiles written every 5000 cycles
Free energy mapping: mapped to a,b,c-coordinates
BarrierPosition:       0.0000000000       0.0000000000       0.0000000000
BarrierNormal:         0.0000000000       0.0000000000       0.0000000000
Start with a molecule on top of the barrier: no
Maximum distance to barrier (e.g. distance to minumum free energy):       0.0000000000 [A]
Maximum trajectory time:      10.0000000000 [ps]
Each configuration is used with 5 different initial velocities


Cbmc parameters
===========================================================================
Biasing method: using only the VDW part
Number of trial positions:                                       10
Number of trial positions (reinsertion):                         10
Number of trial positions (partial reinsertion):                 10
Number of trial positions (identity-change):                     10
Number of trial positions (Gibbs particle transfer):             10
Number of trial positions (insertion/deletion):                  10
Number of trial positions (Widom insertion):                     10
Number of trial positions coupled Torsion-selection:             100
Number of trial positions first bead:                            10
Number of trial positions first bead (reinsertion):              10
Number of trial positions first bead (partial reinsertion):      10
Number of trial positions first bead (identity-change):          10
Number of trial positions first bead (Gibbs particle transfer):  10
Number of trial positions first bead (insertion/deletion):       10
Number of trial positions first bead (Widom insertion):          10
Number of trial moves per open bead:                             150
Target acceptance ratio small-mc scheme:                         0.400000
Energy overlap criteria:                                         1e+07
Minimal Rosenbluth factor:                                       1e-150


Pseudo atoms: 3
===========================================================================
Pseudo Atom[   0] Name UNIT     Oxidation:          Element: H    pdb-name: H    Scat. Types:   1   1 Mass=1.000000000  B-factor:0.000   
                 Charge=1.000000000          Polarization=0.000000000  [A^3] (considered a charged atom and no polarization)  Interactions: yes
                 Anisotropic factor:    0.000 [-] (Absolute), Radius:    1.000 [A], Framework-atom:  no
Pseudo Atom[   1] Name Ar_gas   Oxidation: +0       Element: Ar   pdb-name: Ar   Scat. Types:  19  18 Mass=39.950000000 B-factor:1.000   
                 Charge=0.000000000          Polarization=0.000000000  [A^3] (considered a chargeless atom and no polarization)  Interactions: yes
                 Anisotropic factor:    0.000 [-] (Relative), Radius:    1.000 [A], Framework-atom:  no
Pseudo Atom[   2] Name C        Oxidation:          Element: C    pdb-name: C    Scat. Types:   7   6 Mass=12.010735897 B-factor:0.000   
                 Charge=0.000000000  (-na-)  Polarization=1.760000000  [A^3] (considered a chargeless atom and no polarization)  Interactions: yes
                 Anisotropic factor:    0.000 [-] (Absolute), Radius:    0.750 [A], Framework-atom: yes (charge definition not found)


Forcefield: Local
===========================================================================
Minimal distance: 1
CutOff VDW : 8.000000 (64.000000)
CutOff VDW switching on: 7.200000 (51.840000)
CutOff charge-charge : 12.000000 (144.000000)
CutOff charge-charge switching on: 7.800000 (60.840000)
CutOff charge-bonddipole : 12.000000 (144.000000)
CutOff charge-bondipole switching on: 8.400000 (70.560000)
CutOff bonddipole-bonddipole : 12.000000 (144.000000)
CutOff bonddipole-bondipole switching on: 9.000000 (81.000000)
Polarization is neglected
TailCorrections are used
All potentials are unshifted !!!!!!

General mixing rule: Lorentz-Berthelot mixing rules are used FIRST for cross terms
0 cross terms are overwritten using the individual mixing rules from the file 'force_field_mixing_rules.def'
and then 0 terms are overwritten using the specific interactions from the file 'force_field.def'

The force field and all the interactions:
 Ar_gas -  Ar_gas [LENNARD_JONES] p_0/k_B: 119.80000 [K], p_1: 3.40000 [A], shift/k_B:   0.00000000 [K], tailcorrection: yes
 Ar_gas -       C [LENNARD_JONES] p_0/k_B:  75.72159 [K], p_1: 3.43649 [A], shift/k_B:   0.00000000 [K], tailcorrection: yes
      C -       C [LENNARD_JONES] p_0/k_B:  47.86110 [K], p_1: 3.47299 [A], shift/k_B:   0.00000000 [K], tailcorrection: yes


MoleculeDefinitions:
===========================================================================
Component 0 [Ar] (Adsorbate molecule)

	MoleculeDefinitions: Local
	Component contains no atoms with charge
	Component contains no atoms with point dipoles (polarization)
	Component has a net charge of 0.000000

	Ideal chain Rosenbluth weight: 1
	Ideal chain total energy: 0.000000

	Critical temparure [K]: 150.860000
	Critical pressure [Pa]: 4898000.000000
	Acentric factor [-]: 0.000000

	RXMC partition factor ln(q/V) [ln(A^(-3))]:       0.0000000000

	Liquid=stable, Vapour=metastable

	MolFraction:           1.0000000000 [-]
	Compressibility:       0.0034547069 [-]

	Density of the bulk fluid phase:    1598.6449606004 [kg/m^3]

	Binary mixture EOS parameters:  (0): 0.000000

	Amount of excess molecules:     118.5263210857 [-]

	Conversion factor molecules/unit cell -> mol/kg:      20.8147112840 [-]
	Conversion factor molecules/unit cell -> mg/g:     831.5477157974 [-]
	Conversion factor molecules/unit cell -> cm^3 STP/gr:     466.5404339136 [-]
	Conversion factor molecules/unit cell -> cm^3 STP/cm^3:     177.5796535584 [-]
	Conversion factor mol/kg -> cm^3 STP/gr:      22.4139757476 [-]
	Conversion factor mol/kg -> cm^3 STP/cm^3:       8.5314492781 [-]

	Partial pressure:    100000.00000000000000 [Pa]
	                        750.00000000000000 [Torr]
	                          1.00000000000000 [bar]
	                          0.98692326671601 [atm]

	Fugacity coefficient:       0.9565666722 [-]

	Partial fugacity:     95656.66721706987300 [Pa]
	                        717.42500412802406 [Torr]
	                          0.95656667217070 [bar]
	                          0.94405790493037 [atm]

	Molecule contains 1 number of atoms
		atom:    0  is of type:    1 [    Ar_gas] (group: 0)

	Molecule contains 0 chirality centers

	Molecule contains 1 number of groups

		group: 0 containing: 1 elements
		-------------------------------------------------
		the group represents a point particle
		Mass: 39.950000 [a.u.]
		Mass: 11.304027 [kg/m^3]

		Rotational Degrees of freedom: 0
		Diagonalized inertia vector:       0.0000000000
		                                   0.0000000000
		                                   0.0000000000
		number of atoms: 1
			element: 0 atom: 0 [    Ar_gas] Charge:  0.000000 Anisotropy: 0.000000 Position:  0.000000 -0.000000  0.000000 Connectivity: 0 ()
		number of permanent dipoles: 0
		number of polarizabilities: 0

		Dipole:           0.0000000000 [D]
		Quadrupole:       0.0000000000       0.0000000000       0.0000000000 [D Angstrom]
		Quadrupole tensor [D Angstrom]
				       0.0000000000       0.0000000000       0.0000000000
				       0.0000000000       0.0000000000       0.0000000000
				       0.0000000000       0.0000000000       0.0000000000

	Starting bead for growth               : 0

	Degrees of freedom                     : 0
	Translational degrees of freedom       : 0
	Rotational degrees of freedom          : 0
	Vibrational degrees of freedom         : 0
	Constraint degrees of freedom          : 0

	Number of atoms                        : 1

	Number of constraint bonds             : 0
	Number of constraint bends             : 0
	Number of constraint inversion bends   : 0
	Number of constraint torsions          : 0
	Number of constraint improper torsions : 0
	Number of constraint improper torsions : 0

	Number of bonds                        : 0
	Number of Urey-Bradleys                : 0
	Number of bends                        : 0
	Number of inversion bends              : 0
	Number of torsions                     : 0
	Number of improper torsions            : 0
	Number of improper torsions            : 0

	Number of bond/bond cross terms        : 0
	Number of bond/bend cross terms        : 0
	Number of bend/bend cross terms        : 0
	Number of stretch/torsion cross terms  : 0
	Number of bend/torsion cross terms     : 0

	Number of charges                      : 0
	Number of bond-dipoles                 : 0

	Number of intra Van der Waals                             : 0
	Number of intra charge-charge Coulomb                     : 0
	Number of intra charge-bonddipole Coulomb                 : 0
	Number of intra bonddipole-bonddipole Coulomb             : 0

	Number of excluded intra charge-charge Coulomb                     : 0
	Number of excluded intra charge-bonddipole Coulomb                 : 0
	Number of excluded intra bonddipole-bonddipole Coulomb             : 0

	Number of cbmc-config moves                               : 0

	Particle Moves:             
		ProbabilityTranslationMove:                  50.000000
			TranslationDirection:      XYZ
		Percentage of random translation moves:            0.000000
		Percentage of rotation moves:                      0.000000
		Percentage of random rotation moves:               0.000000
		Percentage of partial reinsertion moves:           0.000000
		Percentage of reinsertion moves:                   25.000000
		Percentage of reinsertion-in-place moves:          0.000000
		Percentage of reinsertion-in-plane moves:          0.000000
		Percentage of identity-change moves:               0.000000
		Percentage of swap (insert/delete) moves:          25.000000
		Percentage of CF swap lambda moves:                0.000000
		Percentage of CB/CFMC swap lambda moves:           0.000000
		Percentage of Widom insertion moves:               0.000000
		Percentage of CF-Widom insertion moves:            0.000000
		Percentage of Gibbs Widom insertion moves:         0.000000
		Percentage of surface-area moves:                  0.000000
		Percentage of Gibbs particle-transfer moves:       0.000000
		Percentage of Gibbs identity-change moves:         0.000000
		Percentage of CF Gibbs lambda-transfer moves:      0.000000
		Percentage of CB/CFMC Gibbs lambda-transfer moves: 0.000000
		Percentage of exchange frac./int. particle moves:  0.000000
		Percentage of fractional mol. to other box moves:  0.000000
		Percentage of lambda-change moves:                 0.000000
		Percentage of fractional to integer moves:         0.000000

	System Moves:
		Percentage of parallel-tempering moves:            0.000000
		Percentage of hyper-parallel-tempering moves:      0.000000
		Percentage of parallel-mol-fraction moves:         0.000000
			   Component A: 0 B: 1
		Percentage of chiral inversion moves:              0.000000
		Percentage of Hybrid-NVE moves:                    0.000000
		Percentage of Hybrid-NPH moves:                    0.000000
		Percentage of Hybrid-NPHPR moves:                  0.000000
		Percentage of volume-change moves:                 0.000000
		Percentage of box-shape-change moves:              0.000000
		Percentage of Gibbs volume-change moves:           0.000000
		Percentage of framework-change moves:              0.000000
		Percentage of framework-shift moves:               0.000000
		Percentage of reactive MC moves:                   0.000000

	Moves are restricted: No
	No biased sampling used for this component


	number of identity-config changes: 1
	--------------------------------------------
	nr fixed 1: 0 

	Number of pockets blocked in a unitcell: 0
		Pockets are NOT blocked for this component



Framework Status
===========================================================================
Lowenstein's rule obeyed by framework
	Framework is modelled as: rigid

	Number of charges:                               0
	Number of bonddipoles:                           0


System Properties
===========================================================================
Unit cell size: 2.460000 4.260000 20.000000
Cell angles (radians)  alpha: 1.570796 beta: 1.570796 gamma: 1.570796
Cell angles (degrees)  alpha: 90.000000 beta: 90.000000 gamma: 90.000000
Number of unitcells [a]: 7
Number of unitcells [b]: 4
Number of unitcells [c]: 1

RECTANGULAR Boundary conditions: alpha=beta=gamma=90 degrees

Cartesian axis A is collinear with crystallographic axis a
Cartesian axis B is collinear with (axb)xA
Cartesian axis C is collinear with (axb)

lengths of cell vectors:
 17.22000  17.04000  20.00000
cosines of cell angles:
  0.00000   0.00000   0.00000
perpendicular cell widths:
 17.22000  17.04000  20.00000
volume of the cell:  5868.575999999999 (A^3)

Orthogonalization matrix Box
Transforms fractional coordinates abc into orthonormal Cartesian coordinates xyz
Deorthogonalization matrix InverseBox
Transforms orthonormal Cartesian coordinates xyz into fractional coordinates xyz

Box[0]:
	   17.220000000000     0.000000000000     0.000000000000
	    0.000000000000    17.040000000000     0.000000000000
	    0.000000000000     0.000000000000    20.000000000000

Inverse box[0]:
	    0.058072009292    -0.000000000000    -0.000000000000
	    0.000000000000     0.058685446009    -0.000000000000
	    0.000000000000     0.000000000000     0.050000000000


Unitcell box[0]:
	    2.460000000000     0.000000000000     0.000000000000
	    0.000000000000     4.260000000000     0.000000000000
	    0.000000000000     0.000000000000    20.000000000000

Unitcell inverse box[0]:
	    0.406504065041    -0.000000000000    -0.000000000000
	    0.000000000000     0.234741784038    -0.000000000000
	    0.000000000000     0.000000000000     0.050000000000

lengths of cell vectors (inverse box):
  0.05807   0.05869   0.05000
cosines of cell angles (inverse box):
 -0.00000  -0.00000  -0.00000
perpendicular cell widths (inverse):
  0.05807   0.05869   0.05000
volume of the cell:  5868.575999999999 (A^3)

No replicas are used
Framework is simulated as 'rigid'
Number of framework atoms: 112
Number of framework atoms in the unit cell: 4
Framework Mass:  1345.202420437623 [g/mol]
Framework Density:   380.630789208962 [kg/m^3]    2.6272178403598 [cm^3/g]
Helium void fraction:    0.83810000
Available pore volume: 4918.45354560 [A^3]    2.20187127 [cm^3/g]
Conversion factor from molecule/unit cell -> kmol/m^3: 0.282954, kmol/m^3 accesible pore volume: 0.337614

Number Of Frameworks (per system): 1
----------------------------------------------------------------------
Framework name: framework_1
Space group: 1
	Identifier: 1
	short international Hermann-Mauguin symbol: P 1
	long international Hermann-Mauguin symbol: P 1
	Hall symbol: P 1
	Number of lattice translations: 1 [ (0,0,0) ]
	acentric/centric: acentric
	chiral: no
	enantiomorphic: no
	number of operators: 1
		'x,y,z'
Framework is simulated as 'rigid'
Shift: 0.000000 0.000000 0.000000
Number of framework atoms: 112
Number of asymmetric atoms: 4
Number of free framework atoms: 0
Number of fixed framework atoms: 112
Number of framework atoms in the unit cell: 4
Framework Mass:  1345.202420437623 [g/mol]
Framework Density:   380.630789208962 [kg/m^3]
Framework has net charge: 0.000000
         largest charge : 0.000000
         smallest charge: 0.000000

Using FULL Host-guest interaction calculation (for testing purposes)

Current Atom Status
===========================================================================
Number of framework atoms        : 112
Number of cations molecules      : 0
Number of adsorbate molecules    : 0
Component    0 :    0 molecules
Pseudo Atoms    0 [    UNIT]:    0 atoms
Pseudo Atoms    1 [  Ar_gas]:    0 atoms
Pseudo Atoms    2 [       C]:  112 atoms


Current (initial full energy) Energy Status
===========================================================================

Internal energy:
Host stretch energy:                                            0.00000000
Host UreyBradley energy:                                        0.00000000
Host bend energy:                                               0.00000000
Host inversion-bend energy:                                     0.00000000
Host torsion energy:                                            0.00000000
Host improper torsion energy:                                   0.00000000
Host out-of-plane energy:                                       0.00000000
Host stretch/stretch energy:                                    0.00000000
Host bend/bend energy:                                          0.00000000
Host stretch/bend energy:                                       0.00000000
Host stretch/torsion energy:                                    0.00000000
Host bend/torsion energy:                                       0.00000000

Adsorbate stretch energy:                                       0.00000000
Adsorbate UreyBradley energy:                                   0.00000000
Adsorbate bend energy:                                          0.00000000
Adsorbate inversion-bend energy:                                0.00000000
Adsorbate torsion energy:                                       0.00000000
Adsorbate improper torsion energy:                              0.00000000
Adsorbate out-of-plane energy:                                  0.00000000
Adsorbate stretch/stretch energy:                               0.00000000
Adsorbate bend/bend energy:                                     0.00000000
Adsorbate stretch/bend energy:                                  0.00000000
Adsorbate stretch/torsion energy:                               0.00000000
Adsorbate bend/torsion energy:                                  0.00000000
Adsorbate intra VDW energy:                                     0.00000000
Adsorbate intra charge-charge Coulomb energy:                   0.00000000
Adsorbate intra charge-bonddipole Coulomb energy:               0.00000000
Adsorbate intra bonddipole-bonddipole Coulomb energy:           0.00000000

Cation stretch energy:                                          0.00000000
Cation UreyBradley energy:                                      0.00000000
Cation bend energy:                                             0.00000000
Cation inversion-bend energy:                                   0.00000000
Cation torsion energy:                                          0.00000000
Cation improper torsion energy:                                 0.00000000
Cation out-of-plane energy:                                     0.00000000
Cation stretch/stretch energy:                                  0.00000000
Cation bend/bend energy:                                        0.00000000
Cation stretch/bend energy:                                     0.00000000
Cation stretch/torsion energy:                                  0.00000000
Cation bend/torsion energy:                                     0.00000000
Cation intra VDW energy:                                        0.00000000
Cation intra charge-charge Coulomb energy:                      0.00000000
Cation intra charge-bonddipole Coulomb energy:                  0.00000000
Cation intra bonddipole-bonddipole Coulomb energy:              0.00000000

Host/Host energy:                                             0.00000000
	Host/Host VDW energy:                                         0.00000000
	Host/Host Coulomb energy:                                     0.00000000
	Host/Host charge-charge Real energy:                          0.00000000
	Host/Host charge-charge Fourier energy:                       0.00000000
	Host/Host charge-bonddipole Real energy:                      0.00000000
	Host/Host charge-bonddipole Fourier energy:                   0.00000000
	Host/Host bondipole-bonddipole Real energy:                   0.00000000
	Host/Host bondipole-bonddipole Fourier energy:                0.00000000

Host/Adsorbate energy:                                        0.00000000
	Host/Adsorbate VDW energy:                                    0.00000000
	Host/Adsorbate Coulomb energy:                                0.00000000
	Host/Adsorbate charge-charge Real energy:                     0.00000000
	Host/Adsorbate charge-charge Fourier energy:                  0.00000000
	Host/Adsorbate charge-bonddipole Real energy:                 0.00000000
	Host/Adsorbate charge-bonddipole Fourier energy:              0.00000000
	Host/Adsorbate bondipole-bonddipole Real energy:              0.00000000
	Host/Adsorbate bondipole-bonddipole Fourier energy:           0.00000000

Host/Cation energy:                                           0.00000000
	Host/Cation VDW energy:                                       0.00000000
	Host/Cation Coulomb energy:                                   0.00000000
	Host/Cation charge-charge Real energy:                        0.00000000
	Host/Cation charge-charge Fourier energy:                     0.00000000
	Host/Cation charge-bonddipole Real energy:                    0.00000000
	Host/Cation charge-bonddipole Fourier energy:                 0.00000000
	Host/Cation bondipole-bonddipole Real energy:                 0.00000000
	Host/Cation bondipole-bonddipole Fourier energy:              0.00000000

Adsorbate/Adsorbate energy:                                        0.00000000
	Adsorbate/Adsorbate VDW energy:                                    0.00000000
	Adsorbate/Adsorbate Coulomb energy:                                0.00000000
	Adsorbate/Adsorbate charge-charge Real energy:                     0.00000000
	Adsorbate/Adsorbate charge-charge Fourier energy:                  0.00000000
	Adsorbate/Adsorbate charge-bonddipole Real energy:                 0.00000000
	Adsorbate/Adsorbate charge-bonddipole Fourier energy:              0.00000000
	Adsorbate/Adsorbate bondipole-bonddipole Real energy:              0.00000000
	Adsorbate/Adsorbate bondipole-bonddipole Fourier energy:           0.00000000

Adsorbate/Cation energy:                                           0.00000000
	Adsorbate/Cation VDW energy:                                       0.00000000
	Adsorbate/Cation Coulomb energy:                                   0.00000000
	Adsorbate/Cation charge-charge Real energy:                        0.00000000
	Adsorbate/Cation charge-charge Fourier energy:                     0.00000000
	Adsorbate/Cation charge-bonddipole Real energy:                    0.00000000
	Adsorbate/Cation charge-bonddipole Fourier energy:                 0.00000000
	Adsorbate/Cation bondipole-bonddipole Real energy:                 0.00000000
	Adsorbate/Cation bondipole-bonddipole Fourier energy:              0.00000000

Cation/Cation energy:                                           0.00000000
	Cation/Cation VDW energy:                                       0.00000000
	Cation/Cation Coulomb energy:                                   0.00000000
	Cation/Cation charge-charge Real energy:                        0.00000000
	Cation/Cation charge-charge Fourier energy:                     0.00000000
	Cation/Cation charge-bonddipole Real energy:                    0.00000000
	Cation/Cation charge-bonddipole Fourier energy:                 0.00000000
	Cation/Cation bondipole-bonddipole Real energy:                 0.00000000
	Cation/Cation bondipole-bonddipole Fourier energy:              0.00000000

Polarization energy:
	Host polarization energy:                                     0.00000000
	Adsorbate polarization energy:                                0.00000000
	Cation polarization energy:                                   0.00000000
	Host back-polarization energy:                                     0.00000000
	Adsorbate back-polarization energy:                                0.00000000
	Cation back-polarization energy:                                   0.00000000

Tail-correction energy:                                   -2930.79674349

Distance constraints energy:                                  0.00000000
Angle constraints energy:                                     0.00000000
Dihedral constraints energy:                                  0.00000000
Inversion-bend constraints energy:                            0.00000000
Out-of-plane distance constraints energy:                     0.00000000
Exclusion constraints energy:                                 0.00000000

===================================================================
Total energy: -2930.796743492017
	Total Van der Waals: 0.000000
	Total Coulomb: 0.000000

	Total Polarization: 0.000000







+++++++++++++++++++++++++++++++++++++++++++++++++++++++++++++++++++++++++
Starting simulation
+++++++++++++++++++++++++++++++++++++++++++++++++++++++++++++++++++++++++

[Init] Current cycle: 0 out of 300
========================================================================================================

Net charge: 0 (F: 0, A: 0, C: 0)
Current Box:  17.22000   0.00000   0.00000 [A]
               0.00000  17.04000   0.00000 [A]
               0.00000   0.00000  20.00000 [A]
Box-lengths:  17.22000  17.04000  20.00000 Box-angles:   90.00000  90.00000  90.00000 [degrees]
Volume: 5868.57600 [A^3]

Loadings per component:
----------------------------------------------------------------------------------------------------------------------------------------------------
Component 0 (Ar), current number of integer/fractional/reaction molecules: 0/0/0, density:   0.00000 [kg/m^3]
	absolute adsorption:   0.00000 [mol/uc],         0.0000 [mol/kg],              0.0000 [mg/g]
	                                                 0.0000 [cm^3 STP/g],          0.0000 [cm^3 STP/cm^3]
	excess adsorption:    -4.23308 [mol/uc],       -88.1104 [mol/kg],          -3520.0104 [mg/g]
	                                             -1974.9043 [cm^3 STP/g],       -751.7094 [cm^3 STP/cm^3]
----------------------------------------------------------------------------------------------------------------------------------------------------
Degrees of freedom: 0 0 0 0
Number of Framework-atoms:    112
Number of Adsorbates:           0 (0 integer, 0 fractional, 0 reaction)
Number of Cations:              0 (0 integer, 0 fractional, 0 reaction

Current total potential energy:             -2930.7967434920 [K]
	Current Host-Host energy:                     0.0000000000 [K]
	Current Host-Adsorbate energy:                0.0000000000 [K]
	Current Host-Cation energy:                   0.0000000000 [K]
	Current Adsorbate-Adsorbate energy:           0.0000000000 [K]
	Current Cation-Cation energy:                 0.0000000000 [K]
	Current Adsorbate-Cation energy:              0.0000000000 [K]



[Init] Current cycle: 30 out of 300
========================================================================================================

Net charge: 0 (F: 0, A: 0, C: 0)
Current Box:  17.22000   0.00000   0.00000 [A]
               0.00000  17.04000   0.00000 [A]
               0.00000   0.00000  20.00000 [A]
Box-lengths:  17.22000  17.04000  20.00000 Box-angles:   90.00000  90.00000  90.00000 [degrees]
Volume: 5868.57600 [A^3]

Loadings per component:
----------------------------------------------------------------------------------------------------------------------------------------------------
Component 0 (Ar), current number of integer/fractional/reaction molecules: 66/0/0, density: 746.06623 [kg/m^3]
	absolute adsorption:   2.35714 [mol/uc],        49.0632 [mol/kg],           1960.0768 [mg/g]
	                                              1099.7025 [cm^3 STP/g],        418.5806 [cm^3 STP/cm^3]
	excess adsorption:    -1.87594 [mol/uc],       -39.0472 [mol/kg],          -1559.9337 [mg/g]
	                                              -875.2019 [cm^3 STP/g],       -333.1288 [cm^3 STP/cm^3]
----------------------------------------------------------------------------------------------------------------------------------------------------
Degrees of freedom: 198 0 198 0
Number of Framework-atoms:    112
Number of Adsorbates:          66 (66 integer, 0 fractional, 0 reaction)
Number of Cations:              0 (0 integer, 0 fractional, 0 reaction

Current total potential energy:            -65783.6937343045 [K]
	Current Host-Host energy:                     0.0000000000 [K]
	Current Host-Adsorbate energy:           -34364.7588485722 [K]
	Current Host-Cation energy:                   0.0000000000 [K]
	Current Adsorbate-Adsorbate energy:      -21114.9454272723 [K]
	Current Cation-Cation energy:                 0.0000000000 [K]
	Current Adsorbate-Cation energy:              0.0000000000 [K]



[Init] Current cycle: 60 out of 300
========================================================================================================

Net charge: 0 (F: 0, A: 0, C: 0)
Current Box:  17.22000   0.00000   0.00000 [A]
               0.00000  17.04000   0.00000 [A]
               0.00000   0.00000  20.00000 [A]
Box-lengths:  17.22000  17.04000  20.00000 Box-angles:   90.00000  90.00000  90.00000 [degrees]
Volume: 5868.57600 [A^3]

Loadings per component:
----------------------------------------------------------------------------------------------------------------------------------------------------
Component 0 (Ar), current number of integer/fractional/reaction molecules: 86/0/0, density: 972.14690 [kg/m^3]
	absolute adsorption:   3.07143 [mol/uc],        63.9309 [mol/kg],           2554.0394 [mg/g]
	                                              1432.9456 [cm^3 STP/g],        545.4232 [cm^3 STP/cm^3]
	excess adsorption:    -1.16165 [mol/uc],       -24.1795 [mol/kg],           -965.9710 [mg/g]
	                                              -541.9587 [cm^3 STP/g],       -206.2862 [cm^3 STP/cm^3]
----------------------------------------------------------------------------------------------------------------------------------------------------
Degrees of freedom: 258 0 258 0
Number of Framework-atoms:    112
Number of Adsorbates:          86 (86 integer, 0 fractional, 0 reaction)
Number of Cations:              0 (0 integer, 0 fractional, 0 reaction

Current total potential energy:            -96725.3105939315 [K]
	Current Host-Host energy:                     0.0000000000 [K]
	Current Host-Adsorbate energy:           -43409.1691289971 [K]
	Current Host-Cation energy:                   0.0000000000 [K]
	Current Adsorbate-Adsorbate energy:      -39892.0816357992 [K]
	Current Cation-Cation energy:                 0.0000000000 [K]
	Current Adsorbate-Cation energy:              0.0000000000 [K]



[Init] Current cycle: 90 out of 300
========================================================================================================

Net charge: 0 (F: 0, A: 0, C: 0)
Current Box:  17.22000   0.00000   0.00000 [A]
               0.00000  17.04000   0.00000 [A]
               0.00000   0.00000  20.00000 [A]
Box-lengths:  17.22000  17.04000  20.00000 Box-angles:   90.00000  90.00000  90.00000 [degrees]
Volume: 5868.57600 [A^3]

Loadings per component:
----------------------------------------------------------------------------------------------------------------------------------------------------
Component 0 (Ar), current number of integer/fractional/reaction molecules: 88/0/0, density: 994.75497 [kg/m^3]
	absolute adsorption:   3.14286 [mol/uc],        65.4177 [mol/kg],           2613.4357 [mg/g]
	                                              1466.2699 [cm^3 STP/g],        558.1075 [cm^3 STP/cm^3]
	excess adsorption:    -1.09023 [mol/uc],       -22.6927 [mol/kg],           -906.5747 [mg/g]
	                                              -508.6344 [cm^3 STP/g],       -193.6019 [cm^3 STP/cm^3]
----------------------------------------------------------------------------------------------------------------------------------------------------
Degrees of freedom: 264 0 264 0
Number of Framework-atoms:    112
Number of Adsorbates:          88 (88 integer, 0 fractional, 0 reaction)
Number of Cations:              0 (0 integer, 0 fractional, 0 reaction

Current total potential energy:           -100514.3240763355 [K]
	Current Host-Host energy:                     0.0000000000 [K]
	Current Host-Adsorbate energy:           -46249.2951431220 [K]
	Current Host-Cation energy:                   0.0000000000 [K]
	Current Adsorbate-Adsorbate energy:      -40506.3028460166 [K]
	Current Cation-Cation energy:                 0.0000000000 [K]
	Current Adsorbate-Cation energy:              0.0000000000 [K]



[Init] Current cycle: 120 out of 300
========================================================================================================

Net charge: 0 (F: 0, A: 0, C: 0)
Current Box:  17.22000   0.00000   0.00000 [A]
               0.00000  17.04000   0.00000 [A]
               0.00000   0.00000  20.00000 [A]
Box-lengths:  17.22000  17.04000  20.00000 Box-angles:   90.00000  90.00000  90.00000 [degrees]
Volume: 5868.57600 [A^3]

Loadings per component:
----------------------------------------------------------------------------------------------------------------------------------------------------
Component 0 (Ar), current number of integer/fractional/reaction molecules: 92/0/0, density: 1039.97110 [kg/m^3]
	absolute adsorption:   3.28571 [mol/uc],        68.3912 [mol/kg],           2732.2282 [mg/g]
	                                              1532.9186 [cm^3 STP/g],        583.4760 [cm^3 STP/cm^3]
	excess adsorption:    -0.94737 [mol/uc],       -19.7192 [mol/kg],           -787.7822 [mg/g]
	                                              -441.9858 [cm^3 STP/g],       -168.2334 [cm^3 STP/cm^3]
----------------------------------------------------------------------------------------------------------------------------------------------------
Degrees of freedom: 276 0 276 0
Number of Framework-atoms:    112
Number of Adsorbates:          92 (92 integer, 0 fractional, 0 reaction)
Number of Cations:              0 (0 integer, 0 fractional, 0 reaction

Current total potential energy:           -108220.7908625848 [K]
	Current Host-Host energy:                     0.0000000000 [K]
	Current Host-Adsorbate energy:           -48371.7533380624 [K]
	Current Host-Cation energy:                   0.0000000000 [K]
	Current Adsorbate-Adsorbate energy:      -45408.6193461141 [K]
	Current Cation-Cation energy:                 0.0000000000 [K]
	Current Adsorbate-Cation energy:              0.0000000000 [K]



[Init] Current cycle: 150 out of 300
========================================================================================================

Net charge: 0 (F: 0, A: 0, C: 0)
Current Box:  17.22000   0.00000   0.00000 [A]
               0.00000  17.04000   0.00000 [A]
               0.00000   0.00000  20.00000 [A]
Box-lengths:  17.22000  17.04000  20.00000 Box-angles:   90.00000  90.00000  90.00000 [degrees]
Volume: 5868.57600 [A^3]

Loadings per component:
----------------------------------------------------------------------------------------------------------------------------------------------------
Component 0 (Ar), current number of integer/fractional/reaction molecules: 96/0/0, density: 1085.18724 [kg/m^3]
	absolute adsorption:   3.42857 [mol/uc],        71.3647 [mol/kg],           2851.0207 [mg/g]
	                                              1599.5672 [cm^3 STP/g],        608.8445 [cm^3 STP/cm^3]
	excess adsorption:    -0.80451 [mol/uc],       -16.7457 [mol/kg],           -668.9897 [mg/g]
	                                              -375.3371 [cm^3 STP/g],       -142.8649 [cm^3 STP/cm^3]
----------------------------------------------------------------------------------------------------------------------------------------------------
Degrees of freedom: 288 0 288 0
Number of Framework-atoms:    112
Number of Adsorbates:          96 (96 integer, 0 fractional, 0 reaction)
Number of Cations:              0 (0 integer, 0 fractional, 0 reaction

Current total potential energy:           -112119.9760833326 [K]
	Current Host-Host energy:                     0.0000000000 [K]
	Current Host-Adsorbate energy:           -48944.6742313965 [K]
	Current Host-Cation energy:                   0.0000000000 [K]
	Current Adsorbate-Adsorbate energy:      -48036.7121488660 [K]
	Current Cation-Cation energy:                 0.0000000000 [K]
	Current Adsorbate-Cation energy:              0.0000000000 [K]



[Init] Current cycle: 180 out of 300
========================================================================================================

Net charge: 0 (F: 0, A: 0, C: 0)
Current Box:  17.22000   0.00000   0.00000 [A]
               0.00000  17.04000   0.00000 [A]
               0.00000   0.00000  20.00000 [A]
Box-lengths:  17.22000  17.04000  20.00000 Box-angles:   90.00000  90.00000  90.00000 [degrees]
Volume: 5868.57600 [A^3]

Loadings per component:
----------------------------------------------------------------------------------------------------------------------------------------------------
Component 0 (Ar), current number of integer/fractional/reaction molecules: 96/0/0, density: 1085.18724 [kg/m^3]
	absolute adsorption:   3.42857 [mol/uc],        71.3647 [mol/kg],           2851.0207 [mg/g]
	                                              1599.5672 [cm^3 STP/g],        608.8445 [cm^3 STP/cm^3]
	excess adsorption:    -0.80451 [mol/uc],       -16.7457 [mol/kg],           -668.9897 [mg/g]
	                                              -375.3371 [cm^3 STP/g],       -142.8649 [cm^3 STP/cm^3]
----------------------------------------------------------------------------------------------------------------------------------------------------
Degrees of freedom: 288 0 288 0
Number of Framework-atoms:    112
Number of Adsorbates:          96 (96 integer, 0 fractional, 0 reaction)
Number of Cations:              0 (0 integer, 0 fractional, 0 reaction

Current total potential energy:           -115489.5746346548 [K]
	Current Host-Host energy:                     0.0000000000 [K]
	Current Host-Adsorbate energy:           -48693.1085104177 [K]
	Current Host-Cation energy:                   0.0000000000 [K]
	Current Adsorbate-Adsorbate energy:      -51657.8764211671 [K]
	Current Cation-Cation energy:                 0.0000000000 [K]
	Current Adsorbate-Cation energy:              0.0000000000 [K]



[Init] Current cycle: 210 out of 300
========================================================================================================

Net charge: 0 (F: 0, A: 0, C: 0)
Current Box:  17.22000   0.00000   0.00000 [A]
               0.00000  17.04000   0.00000 [A]
               0.00000   0.00000  20.00000 [A]
Box-lengths:  17.22000  17.04000  20.00000 Box-angles:   90.00000  90.00000  90.00000 [degrees]
Volume: 5868.57600 [A^3]

Loadings per component:
----------------------------------------------------------------------------------------------------------------------------------------------------
Component 0 (Ar), current number of integer/fractional/reaction molecules: 99/0/0, density: 1119.09934 [kg/m^3]
	absolute adsorption:   3.53571 [mol/uc],        73.5949 [mol/kg],           2940.1151 [mg/g]
	                                              1649.5537 [cm^3 STP/g],        627.8709 [cm^3 STP/cm^3]
	excess adsorption:    -0.69737 [mol/uc],       -14.5155 [mol/kg],           -579.8953 [mg/g]
	                                              -325.3507 [cm^3 STP/g],       -123.8385 [cm^3 STP/cm^3]
----------------------------------------------------------------------------------------------------------------------------------------------------
Degrees of freedom: 297 0 297 0
Number of Framework-atoms:    112
Number of Adsorbates:          99 (99 integer, 0 fractional, 0 reaction)
Number of Cations:              0 (0 integer, 0 fractional, 0 reaction

Current total potential energy:           -119130.2567796316 [K]
	Current Host-Host energy:                     0.0000000000 [K]
	Current Host-Adsorbate energy:           -48039.4272935803 [K]
	Current Host-Cation energy:                   0.0000000000 [K]
	Current Adsorbate-Adsorbate energy:      -55417.7965112833 [K]
	Current Cation-Cation energy:                 0.0000000000 [K]
	Current Adsorbate-Cation energy:              0.0000000000 [K]



[Init] Current cycle: 240 out of 300
========================================================================================================

Net charge: 0 (F: 0, A: 0, C: 0)
Current Box:  17.22000   0.00000   0.00000 [A]
               0.00000  17.04000   0.00000 [A]
               0.00000   0.00000  20.00000 [A]
Box-lengths:  17.22000  17.04000  20.00000 Box-angles:   90.00000  90.00000  90.00000 [degrees]
Volume: 5868.57600 [A^3]

Loadings per component:
----------------------------------------------------------------------------------------------------------------------------------------------------
Component 0 (Ar), current number of integer/fractional/reaction molecules: 100/0/0, density: 1130.40337 [kg/m^3]
	absolute adsorption:   3.57143 [mol/uc],        74.3383 [mol/kg],           2969.8133 [mg/g]
	                                              1666.2158 [cm^3 STP/g],        634.2130 [cm^3 STP/cm^3]
	excess adsorption:    -0.66165 [mol/uc],       -13.7721 [mol/kg],           -550.1971 [mg/g]
	                                              -308.6885 [cm^3 STP/g],       -117.4963 [cm^3 STP/cm^3]
----------------------------------------------------------------------------------------------------------------------------------------------------
Degrees of freedom: 300 0 300 0
Number of Framework-atoms:    112
Number of Adsorbates:         100 (100 integer, 0 fractional, 0 reaction)
Number of Cations:              0 (0 integer, 0 fractional, 0 reaction

Current total potential energy:           -120891.6666875232 [K]
	Current Host-Host energy:                     0.0000000000 [K]
	Current Host-Adsorbate energy:           -49237.6508998602 [K]
	Current Host-Cation energy:                   0.0000000000 [K]
	Current Adsorbate-Adsorbate energy:      -55800.7751264808 [K]
	Current Cation-Cation energy:                 0.0000000000 [K]
	Current Adsorbate-Cation energy:              0.0000000000 [K]



[Init] Current cycle: 270 out of 300
========================================================================================================

Net charge: 0 (F: 0, A: 0, C: 0)
Current Box:  17.22000   0.00000   0.00000 [A]
               0.00000  17.04000   0.00000 [A]
               0.00000   0.00000  20.00000 [A]
Box-lengths:  17.22000  17.04000  20.00000 Box-angles:   90.00000  90.00000  90.00000 [degrees]
Volume: 5868.57600 [A^3]

Loadings per component:
----------------------------------------------------------------------------------------------------------------------------------------------------
Component 0 (Ar), current number of integer/fractional/reaction molecules: 101/0/0, density: 1141.70741 [kg/m^3]
	absolute adsorption:   3.60714 [mol/uc],        75.0816 [mol/kg],           2999.5114 [mg/g]
	                                              1682.8780 [cm^3 STP/g],        640.5552 [cm^3 STP/cm^3]
	excess adsorption:    -0.62594 [mol/uc],       -13.0288 [mol/kg],           -520.4990 [mg/g]
	                                              -292.0263 [cm^3 STP/g],       -111.1542 [cm^3 STP/cm^3]
----------------------------------------------------------------------------------------------------------------------------------------------------
Degrees of freedom: 303 0 303 0
Number of Framework-atoms:    112
Number of Adsorbates:         101 (101 integer, 0 fractional, 0 reaction)
Number of Cations:              0 (0 integer, 0 fractional, 0 reaction

Current total potential energy:           -125582.1013119621 [K]
	Current Host-Host energy:                     0.0000000000 [K]
	Current Host-Adsorbate energy:           -51035.6584095399 [K]
	Current Host-Cation energy:                   0.0000000000 [K]
	Current Adsorbate-Adsorbate energy:      -58511.9645902353 [K]
	Current Cation-Cation energy:                 0.0000000000 [K]
	Current Adsorbate-Cation energy:              0.0000000000 [K]



Average Properties at Current cycle: 0 out of 300
========================================================================================

Framework surface area:       0.0000000000 [m^2/g]        0.0000000000 [m^2/cm^3]       0.0000000000 [A^2]
	Framework 0 individual surface area:       0.0000000000 [m^2/g]        0.0000000000 [m^2/cm^3]       0.0000000000 [A^2]
	Cation surface area:                       0.0000000000 [m^2/g]        0.0000000000 [m^2/cm^3]       0.0000000000 [A^2]
Compressibility:       0.0000000000 [-]
Henry coefficients
	Component 0: 0 [mol/kg/Pa] (Rosenbluth factor new: 0 [-])
Energy <U_gh>_1-<U_h>_0 from Widom


Current cycle: 0 out of 300
========================================================================================================

Net charge: 0 (F: 0, A: 0, C: 0)
Current Box:  17.22000   0.00000   0.00000 [A]   Average Box:  17.22000   0.00000   0.00000 [A]
               0.00000  17.04000   0.00000 [A]                  0.00000  17.04000   0.00000 [A]
               0.00000   0.00000  20.00000 [A]                  0.00000   0.00000  20.00000 [A]
Box-lengths:   17.22000  17.04000  20.00000 [A] Average:  17.22000  17.04000  20.00000 [A]
Box-angles:   90.00000  90.00000  90.00000 [degrees] Average:  90.00000  90.00000  90.00000 [degrees]
Volume: 5868.57600 [A^3] Average Volume: 5868.57600 [A^3]

Loadings per component:
----------------------------------------------------------------------------------------------------------------------------------------------------
Component 0 (Ar), current number of integer/fractional/reaction molecules: 102/0/0 (avg. 102.00000), density: 1153.01144 (avg. 1153.01144) [kg/m^3]
	absolute adsorption:   3.64286 (avg.   3.64286) [mol/uc],  75.8250196776 (avg.  75.8250196776) [mol/kg], 3029.2095361190 (avg. 3029.2095361190) [mg/g]
	                     1699.5401521138 (avg. 1699.5401521138) [cm^3 STP/g],  646.8973093914 (avg. 646.8973093914) [cm^3 STP/cm^3]
	excess adsorption:    -0.5902257531 (avg.  -0.5714285714) [mol/uc], -12.2853786424 (avg. -11.8941207337) [mol/kg], -490.8008767633 (avg. -475.1701233128) [mg/g]
	                     -275.3641789404 (avg. -266.5945336649) [cm^3 STP/g],  -104.8120847500 (avg. -101.4740877477) [cm^3 STP/cm^3]
----------------------------------------------------------------------------------------------------------------------------------------------------
Degrees of freedom: 306 0 306 0
Number of Framework-atoms:    112
Number of Adsorbates:         102 (102 integer, 0 fractional, 0 reaction)
Number of Cations:              0 (0 integer, 0 fractional, 0 reaction)

Current total potential energy:           -126520.2114116918 [K]  (avg.     -126520.2114116918)
	Current Host-Host energy:                     0.0000000000 [K]  (avg.           0.0000000000)
	Current Host-Adsorbate energy:           -51661.7694493245 [K]  (avg.      -51661.7694493245)
	Current Host-Cation energy:                   0.0000000000 [K]  (avg.           0.0000000000)
	Current Adsorbate-Adsorbate energy:      -58641.6960345851 [K]  (avg.      -58641.6960345851)
	Current Cation-Cation energy:                 0.0000000000 [K]  (avg.           0.0000000000)
	Current Adsorbate-Cation energy:              0.0000000000 [K]  (avg.           0.0000000000)



Current cycle: 30 out of 300
========================================================================================================

Net charge: 0 (F: 0, A: 0, C: 0)
Current Box:  17.22000   0.00000   0.00000 [A]   Average Box:  17.22000   0.00000   0.00000 [A]
               0.00000  17.04000   0.00000 [A]                  0.00000  17.04000   0.00000 [A]
               0.00000   0.00000  20.00000 [A]                  0.00000   0.00000  20.00000 [A]
Box-lengths:   17.22000  17.04000  20.00000 [A] Average:  17.22000  17.04000  20.00000 [A]
Box-angles:   90.00000  90.00000  90.00000 [degrees] Average:  90.00000  90.00000  90.00000 [degrees]
Volume: 5868.57600 [A^3] Average Volume: 5868.57600 [A^3]

Loadings per component:
----------------------------------------------------------------------------------------------------------------------------------------------------
Component 0 (Ar), current number of integer/fractional/reaction molecules: 103/0/0 (avg. 102.61290), density: 1164.31547 (avg. 1159.93972) [kg/m^3]
	absolute adsorption:   3.67857 (avg.   3.66475) [mol/uc],  76.5684022234 (avg.  76.2806412379) [mol/kg], 3058.9076688260 (avg. 3047.4116174556) [mg/g]
	                     1716.2023104679 (avg. 1709.7524427179) [cm^3 STP/g],  653.2394398756 (avg. 650.7844216237) [cm^3 STP/cm^3]
	excess adsorption:    -0.5545114673 (avg.  -0.5495391705) [mol/uc], -11.5419960965 (avg. -11.4384991734) [mol/kg], -461.1027440563 (avg. -456.9680419762) [mg/g]
	                     -258.7020205864 (avg. -256.3822430608) [cm^3 STP/g],  -98.4699542657 (avg. -97.5869755154) [cm^3 STP/cm^3]
----------------------------------------------------------------------------------------------------------------------------------------------------
Degrees of freedom: 309 0 309 0
Number of Framework-atoms:    112
Number of Adsorbates:         103 (103 integer, 0 fractional, 0 reaction)
Number of Cations:              0 (0 integer, 0 fractional, 0 reaction)

Current total potential energy:           -128206.6184088779 [K]  (avg.     -126978.8605237999)
	Current Host-Host energy:                     0.0000000000 [K]  (avg.           0.0000000000)
	Current Host-Adsorbate energy:           -51695.8144262017 [K]  (avg.      -51859.5014679146)
	Current Host-Cation energy:                   0.0000000000 [K]  (avg.           0.0000000000)
	Current Adsorbate-Adsorbate energy:      -60110.7604747081 [K]  (avg.      -58790.2694499247)
	Current Cation-Cation energy:                 0.0000000000 [K]  (avg.           0.0000000000)
	Current Adsorbate-Cation energy:              0.0000000000 [K]  (avg.           0.0000000000)



Current cycle: 60 out of 300
========================================================================================================

Net charge: 0 (F: 0, A: 0, C: 0)
Current Box:  17.22000   0.00000   0.00000 [A]   Average Box:  17.22000   0.00000   0.00000 [A]
               0.00000  17.04000   0.00000 [A]                  0.00000  17.04000   0.00000 [A]
               0.00000   0.00000  20.00000 [A]                  0.00000   0.00000  20.00000 [A]
Box-lengths:   17.22000  17.04000  20.00000 [A] Average:  17.22000  17.04000  20.00000 [A]
Box-angles:   90.00000  90.00000  90.00000 [degrees] Average:  90.00000  90.00000  90.00000 [degrees]
Volume: 5868.57600 [A^3] Average Volume: 5868.57600 [A^3]

Loadings per component:
----------------------------------------------------------------------------------------------------------------------------------------------------
Component 0 (Ar), current number of integer/fractional/reaction molecules: 102/0/0 (avg. 102.52459), density: 1153.01144 (avg. 1158.94142) [kg/m^3]
	absolute adsorption:   3.64286 (avg.   3.66159) [mol/uc],  75.8250196776 (avg.  76.2149908492) [mol/kg], 3029.2095361190 (avg. 3044.7888844243) [mg/g]
	                     1699.5401521138 (avg. 1708.2809564963) [cm^3 STP/g],  646.8973093914 (avg. 650.2243286618) [cm^3 STP/cm^3]
	excess adsorption:    -0.5902257531 (avg.  -0.5526932084) [mol/uc], -12.2853786424 (avg. -11.5041495621) [mol/kg], -490.8008767633 (avg. -459.5907750074) [mg/g]
	                     -275.3641789404 (avg. -257.8537292825) [cm^3 STP/g],  -104.8120847500 (avg. -98.1470684773) [cm^3 STP/cm^3]
----------------------------------------------------------------------------------------------------------------------------------------------------
Degrees of freedom: 306 0 306 0
Number of Framework-atoms:    112
Number of Adsorbates:         102 (102 integer, 0 fractional, 0 reaction)
Number of Cations:              0 (0 integer, 0 fractional, 0 reaction)

Current total potential energy:           -125299.6684991525 [K]  (avg.     -126786.5661762923)
	Current Host-Host energy:                     0.0000000000 [K]  (avg.           0.0000000000)
	Current Host-Adsorbate energy:           -51888.6407520319 [K]  (avg.      -51987.0665814396)
	Current Host-Cation energy:                   0.0000000000 [K]  (avg.           0.0000000000)
	Current Adsorbate-Adsorbate energy:      -57194.2818193386 [K]  (avg.      -58486.5975594321)
	Current Cation-Cation energy:                 0.0000000000 [K]  (avg.           0.0000000000)
	Current Adsorbate-Cation energy:              0.0000000000 [K]  (avg.           0.0000000000)



Current cycle: 90 out of 300
========================================================================================================

Net charge: 0 (F: 0, A: 0, C: 0)
Current Box:  17.22000   0.00000   0.00000 [A]   Average Box:  17.22000   0.00000   0.00000 [A]
               0.00000  17.04000   0.00000 [A]                  0.00000  17.04000   0.00000 [A]
               0.00000   0.00000  20.00000 [A]                  0.00000   0.00000  20.00000 [A]
Box-lengths:   17.22000  17.04000  20.00000 [A] Average:  17.22000  17.04000  20.00000 [A]
Box-angles:   90.00000  90.00000  90.00000 [degrees] Average:  90.00000  90.00000  90.00000 [degrees]
Volume: 5868.57600 [A^3] Average Volume: 5868.57600 [A^3]

Loadings per component:
----------------------------------------------------------------------------------------------------------------------------------------------------
Component 0 (Ar), current number of integer/fractional/reaction molecules: 103/0/0 (avg. 102.67033), density: 1164.31547 (avg. 1160.58887) [kg/m^3]
	absolute adsorption:   3.67857 (avg.   3.66680) [mol/uc],  76.5684022234 (avg.  76.3233310545) [mol/kg], 3058.9076688260 (avg. 3049.1170756259) [mg/g]
	                     1716.2023104679 (avg. 1710.7092912303) [cm^3 STP/g],  653.2394398756 (avg. 651.1486276281) [cm^3 STP/cm^3]
	excess adsorption:    -0.5545114673 (avg.  -0.5474882261) [mol/uc], -11.5419960965 (avg. -11.3958093568) [mol/kg], -461.1027440563 (avg. -455.2625838059) [mg/g]
	                     -258.7020205864 (avg. -255.4253945485) [cm^3 STP/g],  -98.4699542657 (avg. -97.2227695110) [cm^3 STP/cm^3]
----------------------------------------------------------------------------------------------------------------------------------------------------
Degrees of freedom: 309 0 309 0
Number of Framework-atoms:    112
Number of Adsorbates:         103 (103 integer, 0 fractional, 0 reaction)
Number of Cations:              0 (0 integer, 0 fractional, 0 reaction)

Current total potential energy:           -127742.2309799387 [K]  (avg.     -126895.6699225265)
	Current Host-Host energy:                     0.0000000000 [K]  (avg.           0.0000000000)
	Current Host-Adsorbate energy:           -52357.3985408610 [K]  (avg.      -51953.0750046047)
	Current Host-Cation energy:                   0.0000000000 [K]  (avg.           0.0000000000)
	Current Adsorbate-Adsorbate energy:      -58984.7889311097 [K]  (avg.      -58602.9791836414)
	Current Cation-Cation energy:                 0.0000000000 [K]  (avg.           0.0000000000)
	Current Adsorbate-Cation energy:              0.0000000000 [K]  (avg.           0.0000000000)



Current cycle: 120 out of 300
========================================================================================================

Net charge: 0 (F: 0, A: 0, C: 0)
Current Box:  17.22000   0.00000   0.00000 [A]   Average Box:  17.22000   0.00000   0.00000 [A]
               0.00000  17.04000   0.00000 [A]                  0.00000  17.04000   0.00000 [A]
               0.00000   0.00000  20.00000 [A]                  0.00000   0.00000  20.00000 [A]
Box-lengths:   17.22000  17.04000  20.00000 [A] Average:  17.22000  17.04000  20.00000 [A]
Box-angles:   90.00000  90.00000  90.00000 [degrees] Average:  90.00000  90.00000  90.00000 [degrees]
Volume: 5868.57600 [A^3] Average Volume: 5868.57600 [A^3]

Loadings per component:
----------------------------------------------------------------------------------------------------------------------------------------------------
Component 0 (Ar), current number of integer/fractional/reaction molecules: 103/0/0 (avg. 102.75207), density: 1164.31547 (avg. 1161.51282) [kg/m^3]
	absolute adsorption:   3.67857 (avg.   3.66972) [mol/uc],  76.5684022234 (avg.  76.3840925013) [mol/kg], 3058.9076688260 (avg. 3051.5444954276) [mg/g]
	                     1716.2023104679 (avg. 1712.0711968264) [cm^3 STP/g],  653.2394398756 (avg. 651.6670108300) [cm^3 STP/cm^3]
	excess adsorption:    -0.5545114673 (avg.  -0.5445690673) [mol/uc], -11.5419960965 (avg. -11.3350479100) [mol/kg], -461.1027440563 (avg. -452.8351640042) [mg/g]
	                     -258.7020205864 (avg. -254.0634889524) [cm^3 STP/g],  -98.4699542657 (avg. -96.7043863091) [cm^3 STP/cm^3]
----------------------------------------------------------------------------------------------------------------------------------------------------
Degrees of freedom: 309 0 309 0
Number of Framework-atoms:    112
Number of Adsorbates:         103 (103 integer, 0 fractional, 0 reaction)
Number of Cations:              0 (0 integer, 0 fractional, 0 reaction)

Current total potential energy:           -129068.8360413139 [K]  (avg.     -127088.2887715871)
	Current Host-Host energy:                     0.0000000000 [K]  (avg.           0.0000000000)
	Current Host-Adsorbate energy:           -52091.1594288202 [K]  (avg.      -52033.3769858350)
	Current Host-Cation energy:                   0.0000000000 [K]  (avg.           0.0000000000)
	Current Adsorbate-Adsorbate energy:      -60577.6331045257 [K]  (avg.      -58700.3139588219)
	Current Cation-Cation energy:                 0.0000000000 [K]  (avg.           0.0000000000)
	Current Adsorbate-Cation energy:              0.0000000000 [K]  (avg.           0.0000000000)



Current cycle: 150 out of 300
========================================================================================================

Net charge: 0 (F: 0, A: 0, C: 0)
Current Box:  17.22000   0.00000   0.00000 [A]   Average Box:  17.22000   0.00000   0.00000 [A]
               0.00000  17.04000   0.00000 [A]                  0.00000  17.04000   0.00000 [A]
               0.00000   0.00000  20.00000 [A]                  0.00000   0.00000  20.00000 [A]
Box-lengths:   17.22000  17.04000  20.00000 [A] Average:  17.22000  17.04000  20.00000 [A]
Box-angles:   90.00000  90.00000  90.00000 [degrees] Average:  90.00000  90.00000  90.00000 [degrees]
Volume: 5868.57600 [A^3] Average Volume: 5868.57600 [A^3]

Loadings per component:
----------------------------------------------------------------------------------------------------------------------------------------------------
Component 0 (Ar), current number of integer/fractional/reaction molecules: 103/0/0 (avg. 102.80132), density: 1164.31547 (avg. 1162.06964) [kg/m^3]
	absolute adsorption:   3.67857 (avg.   3.67148) [mol/uc],  76.5684022234 (avg.  76.4207103269) [mol/kg], 3058.9076688260 (avg. 3053.0073775597) [mg/g]
	                     1716.2023104679 (avg. 1712.8919478810) [cm^3 STP/g],  653.2394398756 (avg. 651.9794139516) [cm^3 STP/cm^3]
	excess adsorption:    -0.5545114673 (avg.  -0.5428098392) [mol/uc], -11.5419960965 (avg. -11.2984300844) [mol/kg], -461.1027440563 (avg. -451.3722818720) [mg/g]
	                     -258.7020205864 (avg. -253.2427378978) [cm^3 STP/g],  -98.4699542657 (avg. -96.3919831875) [cm^3 STP/cm^3]
----------------------------------------------------------------------------------------------------------------------------------------------------
Degrees of freedom: 309 0 309 0
Number of Framework-atoms:    112
Number of Adsorbates:         103 (103 integer, 0 fractional, 0 reaction)
Number of Cations:              0 (0 integer, 0 fractional, 0 reaction)

Current total potential energy:           -128479.3019282382 [K]  (avg.     -127432.1429089111)
	Current Host-Host energy:                     0.0000000000 [K]  (avg.           0.0000000000)
	Current Host-Adsorbate energy:           -51900.4992107923 [K]  (avg.      -52056.5105998748)
	Current Host-Cation energy:                   0.0000000000 [K]  (avg.           0.0000000000)
	Current Adsorbate-Adsorbate energy:      -60178.7592094777 [K]  (avg.      -59012.0055388535)
	Current Cation-Cation energy:                 0.0000000000 [K]  (avg.           0.0000000000)
	Current Adsorbate-Cation energy:              0.0000000000 [K]  (avg.           0.0000000000)



Current cycle: 180 out of 300
========================================================================================================

Net charge: 0 (F: 0, A: 0, C: 0)
Current Box:  17.22000   0.00000   0.00000 [A]   Average Box:  17.22000   0.00000   0.00000 [A]
               0.00000  17.04000   0.00000 [A]                  0.00000  17.04000   0.00000 [A]
               0.00000   0.00000  20.00000 [A]                  0.00000   0.00000  20.00000 [A]
Box-lengths:   17.22000  17.04000  20.00000 [A] Average:  17.22000  17.04000  20.00000 [A]
Box-angles:   90.00000  90.00000  90.00000 [degrees] Average:  90.00000  90.00000  90.00000 [degrees]
Volume: 5868.57600 [A^3] Average Volume: 5868.57600 [A^3]

Loadings per component:
----------------------------------------------------------------------------------------------------------------------------------------------------
Component 0 (Ar), current number of integer/fractional/reaction molecules: 103/0/0 (avg. 102.83425), density: 1164.31547 (avg. 1162.44188) [kg/m^3]
	absolute adsorption:   3.67857 (avg.   3.67265) [mol/uc],  76.5684022234 (avg.  76.4451896468) [mol/kg], 3058.9076688260 (avg. 3053.9853263884) [mg/g]
	                     1716.2023104679 (avg. 1713.4406267628) [cm^3 STP/g],  653.2394398756 (avg. 652.1882580274) [cm^3 STP/cm^3]
	excess adsorption:    -0.5545114673 (avg.  -0.5416337806) [mol/uc], -11.5419960965 (avg. -11.2739507645) [mol/kg], -461.1027440563 (avg. -450.3943330434) [mg/g]
	                     -258.7020205864 (avg. -252.6940590160) [cm^3 STP/g],  -98.4699542657 (avg. -96.1831391117) [cm^3 STP/cm^3]
----------------------------------------------------------------------------------------------------------------------------------------------------
Degrees of freedom: 309 0 309 0
Number of Framework-atoms:    112
Number of Adsorbates:         103 (103 integer, 0 fractional, 0 reaction)
Number of Cations:              0 (0 integer, 0 fractional, 0 reaction)

Current total potential energy:           -126953.0882352030 [K]  (avg.     -127533.4457034249)
	Current Host-Host energy:                     0.0000000000 [K]  (avg.           0.0000000000)
	Current Host-Adsorbate energy:           -53161.9778420925 [K]  (avg.      -52111.1738804177)
	Current Host-Cation energy:                   0.0000000000 [K]  (avg.           0.0000000000)
	Current Adsorbate-Adsorbate energy:      -57391.0668851425 [K]  (avg.      -59052.6091294346)
	Current Cation-Cation energy:                 0.0000000000 [K]  (avg.           0.0000000000)
	Current Adsorbate-Cation energy:              0.0000000000 [K]  (avg.           0.0000000000)



Current cycle: 210 out of 300
========================================================================================================

Net charge: 0 (F: 0, A: 0, C: 0)
Current Box:  17.22000   0.00000   0.00000 [A]   Average Box:  17.22000   0.00000   0.00000 [A]
               0.00000  17.04000   0.00000 [A]                  0.00000  17.04000   0.00000 [A]
               0.00000   0.00000  20.00000 [A]                  0.00000   0.00000  20.00000 [A]
Box-lengths:   17.22000  17.04000  20.00000 [A] Average:  17.22000  17.04000  20.00000 [A]
Box-angles:   90.00000  90.00000  90.00000 [degrees] Average:  90.00000  90.00000  90.00000 [degrees]
Volume: 5868.57600 [A^3] Average Volume: 5868.57600 [A^3]

Loadings per component:
----------------------------------------------------------------------------------------------------------------------------------------------------
Component 0 (Ar), current number of integer/fractional/reaction molecules: 104/0/0 (avg. 102.96209), density: 1175.61951 (avg. 1163.88688) [kg/m^3]
	absolute adsorption:   3.71429 (avg.   3.67722) [mol/uc],  77.3117847693 (avg.  76.5402171032) [mol/kg], 3088.6058015331 (avg. 3057.7816732732) [mg/g]
	                     1732.8644688220 (avg. 1715.5705698668) [cm^3 STP/g],  659.5815703599 (avg. 652.9989799521) [cm^3 STP/cm^3]
	excess adsorption:    -0.5187971816 (avg.  -0.5370683819) [mol/uc], -10.7986135507 (avg. -11.1789233081) [mol/kg], -431.4046113492 (avg. -446.5979861586) [mg/g]
	                     -242.0398622323 (avg. -250.5641159120) [cm^3 STP/g],  -92.1278237815 (avg. -95.3724171870) [cm^3 STP/cm^3]
----------------------------------------------------------------------------------------------------------------------------------------------------
Degrees of freedom: 312 0 312 0
Number of Framework-atoms:    112
Number of Adsorbates:         104 (104 integer, 0 fractional, 0 reaction)
Number of Cations:              0 (0 integer, 0 fractional, 0 reaction)

Current total potential energy:           -130743.7041477420 [K]  (avg.     -127813.8475580239)
	Current Host-Host energy:                     0.0000000000 [K]  (avg.           0.0000000000)
	Current Host-Adsorbate energy:           -53332.9871333574 [K]  (avg.      -52245.1906805215)
	Current Host-Cation energy:                   0.0000000000 [K]  (avg.           0.0000000000)
	Current Adsorbate-Adsorbate energy:      -60826.3459616402 [K]  (avg.      -59175.4556511482)
	Current Cation-Cation energy:                 0.0000000000 [K]  (avg.           0.0000000000)
	Current Adsorbate-Cation energy:              0.0000000000 [K]  (avg.           0.0000000000)



Current cycle: 240 out of 300
========================================================================================================

Net charge: 0 (F: 0, A: 0, C: 0)
Current Box:  17.22000   0.00000   0.00000 [A]   Average Box:  17.22000   0.00000   0.00000 [A]
               0.00000  17.04000   0.00000 [A]                  0.00000  17.04000   0.00000 [A]
               0.00000   0.00000  20.00000 [A]                  0.00000   0.00000  20.00000 [A]
Box-lengths:   17.22000  17.04000  20.00000 [A] Average:  17.22000  17.04000  20.00000 [A]
Box-angles:   90.00000  90.00000  90.00000 [degrees] Average:  90.00000  90.00000  90.00000 [degrees]
Volume: 5868.57600 [A^3] Average Volume: 5868.57600 [A^3]

Loadings per component:
----------------------------------------------------------------------------------------------------------------------------------------------------
Component 0 (Ar), current number of integer/fractional/reaction molecules: 105/0/0 (avg. 103.12448), density: 1186.92354 (avg. 1165.72261) [kg/m^3]
	absolute adsorption:   3.75000 (avg.   3.68302) [mol/uc],  78.0551673151 (avg.  76.6609394698) [mol/kg], 3118.3039342401 (avg. 3062.6045318186) [mg/g]
	                     1749.5266271760 (avg. 1718.2764380638) [cm^3 STP/g],  665.9237008441 (avg. 654.0289166994) [cm^3 STP/cm^3]
	excess adsorption:    -0.4830828959 (avg.  -0.5312685240) [mol/uc], -10.0552310048 (avg. -11.0582009415) [mol/kg], -401.7064786422 (avg. -441.7751276132) [mg/g]
	                     -225.3777038783 (avg. -247.8582477149) [cm^3 STP/g],  -85.7856932973 (avg. -94.3424804397) [cm^3 STP/cm^3]
----------------------------------------------------------------------------------------------------------------------------------------------------
Degrees of freedom: 315 0 315 0
Number of Framework-atoms:    112
Number of Adsorbates:         105 (105 integer, 0 fractional, 0 reaction)
Number of Cations:              0 (0 integer, 0 fractional, 0 reaction)

Current total potential energy:           -131028.8013725738 [K]  (avg.     -128147.2765104065)
	Current Host-Host energy:                     0.0000000000 [K]  (avg.           0.0000000000)
	Current Host-Adsorbate energy:           -53405.5053339460 [K]  (avg.      -52374.6949167012)
	Current Host-Cation energy:                   0.0000000000 [K]  (avg.           0.0000000000)
	Current Adsorbate-Adsorbate energy:      -60853.5674765161 [K]  (avg.      -59349.4303471574)
	Current Cation-Cation energy:                 0.0000000000 [K]  (avg.           0.0000000000)
	Current Adsorbate-Cation energy:              0.0000000000 [K]  (avg.           0.0000000000)



Current cycle: 270 out of 300
========================================================================================================

Net charge: 0 (F: 0, A: 0, C: 0)
Current Box:  17.22000   0.00000   0.00000 [A]   Average Box:  17.22000   0.00000   0.00000 [A]
               0.00000  17.04000   0.00000 [A]                  0.00000  17.04000   0.00000 [A]
               0.00000   0.00000  20.00000 [A]                  0.00000   0.00000  20.00000 [A]
Box-lengths:   17.22000  17.04000  20.00000 [A] Average:  17.22000  17.04000  20.00000 [A]
Box-angles:   90.00000  90.00000  90.00000 [degrees] Average:  90.00000  90.00000  90.00000 [degrees]
Volume: 5868.57600 [A^3] Average Volume: 5868.57600 [A^3]

Loadings per component:
----------------------------------------------------------------------------------------------------------------------------------------------------
Component 0 (Ar), current number of integer/fractional/reaction molecules: 105/0/0 (avg. 103.33210), density: 1186.92354 (avg. 1168.06958) [kg/m^3]
	absolute adsorption:   3.75000 (avg.   3.69043) [mol/uc],  78.0551673151 (avg.  76.8152820357) [mol/kg], 3118.3039342401 (avg. 3068.7705173265) [mg/g]
	                     1749.5266271760 (avg. 1721.7358685929) [cm^3 STP/g],  665.9237008441 (avg. 655.3456824719) [cm^3 STP/cm^3]
	excess adsorption:    -0.4830828959 (avg.  -0.5238534528) [mol/uc], -10.0552310048 (avg. -10.9038583756) [mol/kg], -401.7064786422 (avg. -435.6091421052) [mg/g]
	                     -225.3777038783 (avg. -244.3988171859) [cm^3 STP/g],  -85.7856932973 (avg. -93.0257146672) [cm^3 STP/cm^3]
----------------------------------------------------------------------------------------------------------------------------------------------------
Degrees of freedom: 315 0 315 0
Number of Framework-atoms:    112
Number of Adsorbates:         105 (105 integer, 0 fractional, 0 reaction)
Number of Cations:              0 (0 integer, 0 fractional, 0 reaction)

Current total potential energy:           -131190.6053978269 [K]  (avg.     -128465.7663070113)
	Current Host-Host energy:                     0.0000000000 [K]  (avg.           0.0000000000)
	Current Host-Adsorbate energy:           -53025.5276839774 [K]  (avg.      -52482.1165784447)
	Current Host-Cation energy:                   0.0000000000 [K]  (avg.           0.0000000000)
	Current Adsorbate-Adsorbate energy:      -61395.3491517378 [K]  (avg.      -59522.1319895209)
	Current Cation-Cation energy:                 0.0000000000 [K]  (avg.           0.0000000000)
	Current Adsorbate-Cation energy:              0.0000000000 [K]  (avg.           0.0000000000)



+++++++++++++++++++++++++++++++++++++++++++++++++++++++++++++++++++++++++
Finishing simulation
+++++++++++++++++++++++++++++++++++++++++++++++++++++++++++++++++++++++++




Current (running energy) Energy Status
===========================================================================

Internal energy:
Host stretch energy:                                            0.00000000
Host UreyBradley energy:                                        0.00000000
Host bend energy:                                               0.00000000
Host inversion-bend energy:                                     0.00000000
Host torsion energy:                                            0.00000000
Host improper torsion energy:                                   0.00000000
Host out-of-plane energy:                                       0.00000000
Host stretch/stretch energy:                                    0.00000000
Host bend/bend energy:                                          0.00000000
Host stretch/bend energy:                                       0.00000000
Host stretch/torsion energy:                                    0.00000000
Host bend/torsion energy:                                       0.00000000

Adsorbate stretch energy:                                       0.00000000
Adsorbate UreyBradley energy:                                   0.00000000
Adsorbate bend energy:                                          0.00000000
Adsorbate inversion-bend energy:                                0.00000000
Adsorbate torsion energy:                                       0.00000000
Adsorbate improper torsion energy:                              0.00000000
Adsorbate out-of-plane energy:                                  0.00000000
Adsorbate stretch/stretch energy:                               0.00000000
Adsorbate bend/bend energy:                                     0.00000000
Adsorbate stretch/bend energy:                                  0.00000000
[...]
	Block[ 1]            0.00000 [K]
	Block[ 2]            0.00000 [K]
	Block[ 3]            0.00000 [K]
	Block[ 4]            0.00000 [K]
	------------------------------------------------------------------------------
	Average              0.00000 [K] +/-            0.00000 [K]

Average Cation Bend angle inversion energy:
===========================================
	Block[ 0]            0.00000 [K]
	Block[ 1]            0.00000 [K]
	Block[ 2]            0.00000 [K]
	Block[ 3]            0.00000 [K]
	Block[ 4]            0.00000 [K]
	------------------------------------------------------------------------------
	Average              0.00000 [K] +/-            0.00000 [K]

Average Cation Torsion energy:
==============================
	Block[ 0]            0.00000 [K]
	Block[ 1]            0.00000 [K]
	Block[ 2]            0.00000 [K]
	Block[ 3]            0.00000 [K]
	Block[ 4]            0.00000 [K]
	------------------------------------------------------------------------------
	Average              0.00000 [K] +/-            0.00000 [K]

Average Cation Improper Torsion energy:
=======================================
	Block[ 0]            0.00000 [K]
	Block[ 1]            0.00000 [K]
	Block[ 2]            0.00000 [K]
	Block[ 3]            0.00000 [K]
	Block[ 4]            0.00000 [K]
	------------------------------------------------------------------------------
	Average              0.00000 [K] +/-            0.00000 [K]

Average Cation Bond-Bond cross term energy:
=================================================
	Block[ 0]            0.00000 [K]
	Block[ 1]            0.00000 [K]
	Block[ 2]            0.00000 [K]
	Block[ 3]            0.00000 [K]
	Block[ 4]            0.00000 [K]
	------------------------------------------------------------------------------
	Average              0.00000 [K] +/-            0.00000 [K]

Average Cation Bend-Bend cross term energy:
===========================================
	Block[ 0]            0.00000 [K]
	Block[ 1]            0.00000 [K]
	Block[ 2]            0.00000 [K]
	Block[ 3]            0.00000 [K]
	Block[ 4]            0.00000 [K]
	------------------------------------------------------------------------------
	Average              0.00000 [K] +/-            0.00000 [K]

Average Cation Bond-Bend cross term energy:
==============================================
	Block[ 0]            0.00000 [K]
	Block[ 1]            0.00000 [K]
	Block[ 2]            0.00000 [K]
	Block[ 3]            0.00000 [K]
	Block[ 4]            0.00000 [K]
	------------------------------------------------------------------------------
	Average              0.00000 [K] +/-            0.00000 [K]

Average Cation Bond-Torsion cross term energy:
==============================================
	Block[ 0]            0.00000 [K]
	Block[ 1]            0.00000 [K]
	Block[ 2]            0.00000 [K]
	Block[ 3]            0.00000 [K]
	Block[ 4]            0.00000 [K]
	------------------------------------------------------------------------------
	Average              0.00000 [K] +/-            0.00000 [K]

Average Cation Bend-Torsion cross term energy:
==============================================
	Block[ 0]            0.00000 [K]
	Block[ 1]            0.00000 [K]
	Block[ 2]            0.00000 [K]
	Block[ 3]            0.00000 [K]
	Block[ 4]            0.00000 [K]
	------------------------------------------------------------------------------
	Average              0.00000 [K] +/-            0.00000 [K]

Average Cation Intra Van der Waals energy:
==========================================
	Block[ 0]            0.00000 [K]
	Block[ 1]            0.00000 [K]
	Block[ 2]            0.00000 [K]
	Block[ 3]            0.00000 [K]
	Block[ 4]            0.00000 [K]
	------------------------------------------------------------------------------
	Average              0.00000 [K] +/-            0.00000 [K]

Average Cation Intra charge-charge Coulomb energy:
====================================
	Block[ 0]            0.00000 [K]
	Block[ 1]            0.00000 [K]
	Block[ 2]            0.00000 [K]
	Block[ 3]            0.00000 [K]
	Block[ 4]            0.00000 [K]
	------------------------------------------------------------------------------
	Average              0.00000 [K] +/-            0.00000 [K]

Average Cation Intra charge-bonddipole Coulomb energy:
====================================
	Block[ 0]            0.00000 [K]
	Block[ 1]            0.00000 [K]
	Block[ 2]            0.00000 [K]
	Block[ 3]            0.00000 [K]
	Block[ 4]            0.00000 [K]
	------------------------------------------------------------------------------
	Average              0.00000 [K] +/-            0.00000 [K]

Average Cation Intra bonddipole-bonddipole Coulomb energy:
====================================
	Block[ 0]            0.00000 [K]
	Block[ 1]            0.00000 [K]
	Block[ 2]            0.00000 [K]
	Block[ 3]            0.00000 [K]
	Block[ 4]            0.00000 [K]
	------------------------------------------------------------------------------
	Average              0.00000 [K] +/-            0.00000 [K]

Average Host-Host energy:
=========================
	Block[ 0] 0.00000            Van der Waals: 0.00000            Coulomb: 0.00000            [K]
	Block[ 1] 0.00000            Van der Waals: 0.00000            Coulomb: 0.00000            [K]
	Block[ 2] 0.00000            Van der Waals: 0.00000            Coulomb: 0.00000            [K]
	Block[ 3] 0.00000            Van der Waals: 0.00000            Coulomb: 0.00000            [K]
	Block[ 4] 0.00000            Van der Waals: 0.00000            Coulomb: 0.00000            [K]
	------------------------------------------------------------------------------
	Average   0.00000            Van der Waals: 0.000000           Coulomb: 0.00000            [K]
	      +/- 0.00000                       +/- 0.000000                +/- 0.00000            [K]

Average Adsorbate-Adsorbate energy:
===================================
	Block[ 0] -58508.13616       Van der Waals: -58508.13616       Coulomb: 0.00000            [K]
	Block[ 1] -58861.20311       Van der Waals: -58861.20311       Coulomb: 0.00000            [K]
	Block[ 2] -59816.18049       Van der Waals: -59816.18049       Coulomb: 0.00000            [K]
	Block[ 3] -60187.13268       Van der Waals: -60187.13268       Coulomb: 0.00000            [K]
	Block[ 4] -60436.37467       Van der Waals: -60436.37467       Coulomb: 0.00000            [K]
	------------------------------------------------------------------------------
	Average   -59561.80542       Van der Waals: -59561.805421      Coulomb: 0.00000            [K]
	      +/- 1502.44461                    +/- 1502.444606             +/- 0.00000            [K]

Average Cation-Cation energy:
=============================
	Block[ 0] 0.00000            Van der Waals: 0.00000            Coulomb: 0.00000            [K]
	Block[ 1] 0.00000            Van der Waals: 0.00000            Coulomb: 0.00000            [K]
	Block[ 2] 0.00000            Van der Waals: 0.00000            Coulomb: 0.00000            [K]
	Block[ 3] 0.00000            Van der Waals: 0.00000            Coulomb: 0.00000            [K]
	Block[ 4] 0.00000            Van der Waals: 0.00000            Coulomb: 0.00000            [K]
	------------------------------------------------------------------------------
	Average   0.00000            Van der Waals: 0.000000           Coulomb: 0.00000            [K]
	      +/- 0.00000                       +/- 0.000000                +/- 0.00000            [K]

Average Host-Adsorbate energy:
==============================
	Block[ 0] -51988.70701       Van der Waals: -51988.70701       Coulomb: 0.00000            [K]
	Block[ 1] -52077.08392       Van der Waals: -52077.08392       Coulomb: 0.00000            [K]
	Block[ 2] -52250.21731       Van der Waals: -52250.21731       Coulomb: 0.00000            [K]
	Block[ 3] -53165.59125       Van der Waals: -53165.59125       Coulomb: 0.00000            [K]
	Block[ 4] -53156.93500       Van der Waals: -53156.93500       Coulomb: 0.00000            [K]
	------------------------------------------------------------------------------
	Average   -52527.70690       Van der Waals: -52527.706899      Coulomb: 0.00000            [K]
	      +/- 1048.20108                    +/- 1048.201076             +/- 0.00000            [K]

Average Host-Cation energy:
===========================
	Block[ 0] 0.00000            Van der Waals: 0.00000            Coulomb: 0.00000            [K]
	Block[ 1] 0.00000            Van der Waals: 0.00000            Coulomb: 0.00000            [K]
	Block[ 2] 0.00000            Van der Waals: 0.00000            Coulomb: 0.00000            [K]
	Block[ 3] 0.00000            Van der Waals: 0.00000            Coulomb: 0.00000            [K]
	Block[ 4] 0.00000            Van der Waals: 0.00000            Coulomb: 0.00000            [K]
	------------------------------------------------------------------------------
	Average   0.00000            Van der Waals: 0.000000           Coulomb: 0.00000            [K]
	      +/- 0.00000                       +/- 0.000000                +/- 0.00000            [K]

Average Adsorbate-Cation energy:
================================
	Block[ 0] 0.00000            Van der Waals: 0.00000            Coulomb: 0.00000            [K]
	Block[ 1] 0.00000            Van der Waals: 0.00000            Coulomb: 0.00000            [K]
	Block[ 2] 0.00000            Van der Waals: 0.00000            Coulomb: 0.00000            [K]
	Block[ 3] 0.00000            Van der Waals: 0.00000            Coulomb: 0.00000            [K]
	Block[ 4] 0.00000            Van der Waals: 0.00000            Coulomb: 0.00000            [K]
	------------------------------------------------------------------------------
	Average   0.00000            Van der Waals: 0.000000           Coulomb: 0.00000            [K]
	      +/- 0.00000                       +/- 0.000000                +/- 0.00000            [K]

Host polarization energy:
=======================
	Block[ 0]            0.00000 [K]
	Block[ 1]            0.00000 [K]
	Block[ 2]            0.00000 [K]
	Block[ 3]            0.00000 [K]
	Block[ 4]            0.00000 [K]
	------------------------------------------------------------------------------
	Average              0.00000 [K] +/-            0.00000 [K]

Adsorbate polarization energy:
=======================
	Block[ 0]            0.00000 [K]
	Block[ 1]            0.00000 [K]
	Block[ 2]            0.00000 [K]
	Block[ 3]            0.00000 [K]
	Block[ 4]            0.00000 [K]
	------------------------------------------------------------------------------
	Average              0.00000 [K] +/-            0.00000 [K]

Cation polarization energy:
=======================
	Block[ 0]            0.00000 [K]
	Block[ 1]            0.00000 [K]
	Block[ 2]            0.00000 [K]
	Block[ 3]            0.00000 [K]
	Block[ 4]            0.00000 [K]
	------------------------------------------------------------------------------
	Average              0.00000 [K] +/-            0.00000 [K]

Host back-polarization energy:
=======================
	Block[ 0]            0.00000 [K]
	Block[ 1]            0.00000 [K]
	Block[ 2]            0.00000 [K]
	Block[ 3]            0.00000 [K]
	Block[ 4]            0.00000 [K]
	------------------------------------------------------------------------------
	Average              0.00000 [K] +/-            0.00000 [K]

Adsorbate back-polarization energy:
=======================
	Block[ 0]            0.00000 [K]
	Block[ 1]            0.00000 [K]
	Block[ 2]            0.00000 [K]
	Block[ 3]            0.00000 [K]
	Block[ 4]            0.00000 [K]
	------------------------------------------------------------------------------
	Average              0.00000 [K] +/-            0.00000 [K]

Cation back-polarization energy:
=======================
	Block[ 0]            0.00000 [K]
	Block[ 1]            0.00000 [K]
	Block[ 2]            0.00000 [K]
	Block[ 3]            0.00000 [K]
	Block[ 4]            0.00000 [K]
	------------------------------------------------------------------------------
	Average              0.00000 [K] +/-            0.00000 [K]

Tail-correction energy:
=======================
	Block[ 0]       -16314.50464 [K]
	Block[ 1]       -16393.93359 [K]
	Block[ 2]       -16400.04351 [K]
	Block[ 3]       -16578.34696 [K]
	Block[ 4]       -16769.72856 [K]
	------------------------------------------------------------------------------
	Average         -16491.31145 [K] +/-          327.61466 [K]

Distance-constraints energy:
=======================
	Block[ 0]            0.00000 [K]
	Block[ 1]            0.00000 [K]
	Block[ 2]            0.00000 [K]
	Block[ 3]            0.00000 [K]
	Block[ 4]            0.00000 [K]
	------------------------------------------------------------------------------
	Average              0.00000 [K] +/-            0.00000 [K]

Angle-constraints energy:
=======================
	Block[ 0]            0.00000 [K]
	Block[ 1]            0.00000 [K]
	Block[ 2]            0.00000 [K]
	Block[ 3]            0.00000 [K]
	Block[ 4]            0.00000 [K]
	------------------------------------------------------------------------------
	Average              0.00000 [K] +/-            0.00000 [K]

Dihedral-constraints energy:
=======================
	Block[ 0]            0.00000 [K]
	Block[ 1]            0.00000 [K]
	Block[ 2]            0.00000 [K]
	Block[ 3]            0.00000 [K]
	Block[ 4]            0.00000 [K]
	------------------------------------------------------------------------------
	Average              0.00000 [K] +/-            0.00000 [K]

Inversion-bend constraints energy:
=======================
	Block[ 0]            0.00000 [K]
	Block[ 1]            0.00000 [K]
	Block[ 2]            0.00000 [K]
	Block[ 3]            0.00000 [K]
	Block[ 4]            0.00000 [K]
	------------------------------------------------------------------------------
	Average              0.00000 [K] +/-            0.00000 [K]

Out-of-plane-distance constraints energy:
=======================
	Block[ 0]            0.00000 [K]
	Block[ 1]            0.00000 [K]
	Block[ 2]            0.00000 [K]
	Block[ 3]            0.00000 [K]
	Block[ 4]            0.00000 [K]
	------------------------------------------------------------------------------
	Average              0.00000 [K] +/-            0.00000 [K]

Exclusion-constraints energy:
=======================
	Block[ 0]            0.00000 [K]
	Block[ 1]            0.00000 [K]
	Block[ 2]            0.00000 [K]
	Block[ 3]            0.00000 [K]
	Block[ 4]            0.00000 [K]
	------------------------------------------------------------------------------
	Average              0.00000 [K] +/-            0.00000 [K]

Total energy:
=============
	Block[ 0]      -126811.34780 [K]
	Block[ 1]      -127332.22062 [K]
	Block[ 2]      -128466.44131 [K]
	Block[ 3]      -129931.07089 [K]
	Block[ 4]      -130363.03823 [K]
	------------------------------------------------------------------------------
	Average        -128580.82377 [K] +/-         2786.05011 [K]

Number of molecules:
====================

Component 0 [Ar]
-------------------------------------------------------------
	Block[ 0] 102.53333          [-]
	Block[ 1] 102.96667          [-]
	Block[ 2] 103.00000          [-]
	Block[ 3] 103.96667          [-]
	Block[ 4] 105.00000          [-]
	------------------------------------------------------------------------------
	Average                                    103.4933333333 +/-       1.7745860237 [-]
	Average loading absolute [molecules/unit cell]        3.6961904762 +/-       0.0633780723 [-]
	Average loading absolute [mol/kg framework]         76.9351376127 +/-       1.3191962762 [-]
	Average loading absolute [milligram/gram framework]       3073.5587476282 +/-      52.7018912322 [-]
	Average loading absolute [cm^3 (STP)/gr framework]       1724.4223085892 +/-      29.5684333400 [-]
	Average loading absolute [cm^3 (STP)/cm^3 framework]        656.3682242479 +/-      11.2546561179 [-]

	Block[ 0] 102.53333          [-]
	Block[ 1] 102.96667          [-]
	Block[ 2] 103.00000          [-]
	Block[ 3] 103.96667          [-]
	Block[ 4] 105.00000          [-]
	------------------------------------------------------------------------------
	Average                                    -14.5066666667 +/-       1.7745860237 [-]
	Average loading excess [molecules/unit cell]       -0.5180952381 +/-       0.0633780723 [-]
	Average loading excess [mol/kg framework]        -10.7840027986 +/-       1.3191962762 [-]
	Average loading excess [milligram/gram framework]       -430.8209118036 +/-      52.7018912323 [-]
	Average loading excess [cm^3 (STP)/gr framework]       -241.7123771895 +/-      29.5684333400 [-]
	Average loading excess [cm^3 (STP)/cm^3 framework]        -92.0031728912 +/-      11.2546561179 [-]


Average Widom Rosenbluth factor:
================================
	Block[ 0] 0 [-]
	Block[ 1] 0 [-]
	Block[ 2] 0 [-]
	Block[ 3] 0 [-]
	Block[ 4] 0 [-]
	------------------------------------------------------------------------------
	[Ar] Average Widom Rosenbluth-weight:   0 +/- 0.000000 [-]

Average Widom chemical potential:
=================================
	Block[ 0] 0 [-]
	Block[ 1] 0 [-]
	Block[ 2] 0 [-]
	Block[ 3] 0 [-]
	Block[ 4] 0 [-]
	------------------------------------------------------------------------------
	[Ar] Average chemical potential:   0 +/- 0.000000 [K]

Average Widom Ideal-gas contribution:
=====================================
	Block[ 0] 0 [-]
	Block[ 1] 0 [-]
	Block[ 2] 0 [-]
	Block[ 3] 0 [-]
	Block[ 4] 0 [-]
	------------------------------------------------------------------------------
	[Ar] Average Widom Ideal-gas chemical potential:   0 +/- 0.000000 [-]

Average Widom excess contribution:
==================================
	Block[ 0] 0 [-]
	Block[ 1] 0 [-]
	Block[ 2] 0 [-]
	Block[ 3] 0 [-]
	Block[ 4] 0 [-]
	------------------------------------------------------------------------------
	[Ar] Average Widom excess chemical potential:   0 +/- 0.000000 [-]

Average Gibbs Widom Rosenbluth factor:
======================================
	Block[ 0] 0 [-]
	Block[ 1] 0 [-]
	Block[ 2] 0 [-]
	Block[ 3] 0 [-]
	Block[ 4] 0 [-]
	------------------------------------------------------------------------------
	[Ar] Average Gibbs Widom Rosenbluth-weight:   0 +/- 0.000000 [-]

Average Gibbs Widom chemical potential:
=======================================
	Block[ 0] 0 [-]
	Block[ 1] 0 [-]
	Block[ 2] 0 [-]
	Block[ 3] 0 [-]
	Block[ 4] 0 [-]
	------------------------------------------------------------------------------
	[Ar] Average Gibbs chemical potential:   0 +/- 0.000000 [K]

Average Gibbs Widom Ideal-gas contribution:
===========================================
	Block[ 0] 0 [-]
	Block[ 1] 0 [-]
	Block[ 2] 0 [-]
	Block[ 3] 0 [-]
	Block[ 4] 0 [-]
	------------------------------------------------------------------------------
	[Ar] Average Gibbs Ideal-gas chemical potential:   0 +/- 0.000000 [-]

Average Gibbs Widom excess contribution:
===========================================
	Block[ 0] 0 [-]
	Block[ 1] 0 [-]
	Block[ 2] 0 [-]
	Block[ 3] 0 [-]
	Block[ 4] 0 [-]
	------------------------------------------------------------------------------
	[Ar] Average Gibbs excess chemical potential:   0 +/- 0.000000 [-]

Average Henry coefficient:
==========================
	Block[ 0] 0 [mol/kg/Pa]
	Block[ 1] 0 [mol/kg/Pa]
	Block[ 2] 0 [mol/kg/Pa]
	Block[ 3] 0 [mol/kg/Pa]
	Block[ 4] 0 [mol/kg/Pa]
	------------------------------------------------------------------------------
	[Ar] Average Henry coefficient:  0 +/- 0 [mol/kg/Pa]

Average adsorption energy <U_gh>_1-<U_h>_0 obtained from Widom-insertion:
(Note: the total heat of adsorption is dH=<U_gh>_1-<U_h>_0 - <U_g> - RT)
=========================================================================

Simulation finished,  0 warnings


Fri Nov 13 18:38:24 2020
Simulation finished on Friday, November 13.
The end time was 06:38 PM.

