 DBCSR| Multiplication driver                                               BLAS
 DBCSR| Multrec recursion limit                                              512
 DBCSR| Multiplication stack size                                           1000
 DBCSR| Maximum elements for images                                    UNLIMITED
 DBCSR| Multiplicative factor virtual images                                   1
 DBCSR| Multiplication size stacks                                             3


  **** **** ******  **  PROGRAM STARTED AT               2020-11-20 23:42:25.649
 ***** ** ***  *** **   PROGRAM STARTED ON                         B126028.local
 **    ****   ******    PROGRAM STARTED BY                               leopold
 ***** **    ** ** **   PROGRAM PROCESS ID                                 90326
  **** **  *******  **  PROGRAM STARTED IN /private/var/folders/8y/7c7qkxcx5vxb7
                                           49rt3sw5sh40000gp/T/tmp_jwlsj3b/f7/52
                                           /02be-3ea4-4f10-b5dd-ae2873cb3cad

 CP2K| version string:                                          CP2K version 6.1
 CP2K| source code revision number:                                    svn:18464
 CP2K| cp2kflags: libint fftw3 libxc no_statm_access accelerate                 
 CP2K| is freely available from                            https://www.cp2k.org/
 CP2K| Program compiled at                          Tue Nov 17 02:38:14 CET 2020
 CP2K| Program compiled on                                         B126028.local
 CP2K| Program compiled for                       Darwin-IntelMacintosh-gfortran
 CP2K| Data directory path    /private/tmp/cp2k-20201117-55277-73z00v/cp2k-6.1/d
 CP2K| Input file name                                                 aiida.inp

 GLOBAL| Force Environment number                                              1
 GLOBAL| Basis set file name                                        BASIS_MOLOPT
 GLOBAL| Potential file name                                      GTH_POTENTIALS
 GLOBAL| MM Potential file name                                     MM_POTENTIAL
 GLOBAL| Coordinate file name                                   aiida.coords.xyz
 GLOBAL| Method name                                                        CP2K
 GLOBAL| Project name                                                      aiida
 GLOBAL| Preferred FFT library                                             FFTW3
 GLOBAL| Preferred diagonalization lib.                                       SL
 GLOBAL| Run type                                                        GEO_OPT
 GLOBAL| All-to-all communication in single precision                          F
 GLOBAL| FFTs using library dependent lengths                                  F
 GLOBAL| Global print level                                               MEDIUM
 GLOBAL| Total number of message passing processes                             1
 GLOBAL| Number of threads for this process                                    1
 GLOBAL| This output is from process                                           0
 GLOBAL| CPU model name : UNKNOWN

 MEMORY| system memory details [Kb]
 MEMORY|                        rank 0           min           max       average
 MEMORY| MemTotal                    0             0             0             0
 MEMORY| MemFree                     0             0             0             0
 MEMORY| Buffers                     0             0             0             0
 MEMORY| Cached                      0             0             0             0
 MEMORY| Slab                        0             0             0             0
 MEMORY| SReclaimable                0             0             0             0
 MEMORY| MemLikelyFree               0             0             0             0


 *** Fundamental physical constants (SI units) ***

 *** Literature: B. J. Mohr and B. N. Taylor,
 ***             CODATA recommended values of the fundamental physical
 ***             constants: 2006, Web Version 5.1
 ***             http://physics.nist.gov/constants

 Speed of light in vacuum [m/s]                             2.99792458000000E+08
 Magnetic constant or permeability of vacuum [N/A**2]       1.25663706143592E-06
 Electric constant or permittivity of vacuum [F/m]          8.85418781762039E-12
 Planck constant (h) [J*s]                                  6.62606896000000E-34
 Planck constant (h-bar) [J*s]                              1.05457162825177E-34
 Elementary charge [C]                                      1.60217648700000E-19
 Electron mass [kg]                                         9.10938215000000E-31
 Electron g factor [ ]                                     -2.00231930436220E+00
 Proton mass [kg]                                           1.67262163700000E-27
 Fine-structure constant                                    7.29735253760000E-03
 Rydberg constant [1/m]                                     1.09737315685270E+07
 Avogadro constant [1/mol]                                  6.02214179000000E+23
 Boltzmann constant [J/K]                                   1.38065040000000E-23
 Atomic mass unit [kg]                                      1.66053878200000E-27
 Bohr radius [m]                                            5.29177208590000E-11

 *** Conversion factors ***

 [u] -> [a.u.]                                              1.82288848426455E+03
 [Angstrom] -> [Bohr] = [a.u.]                              1.88972613288564E+00
 [a.u.] = [Bohr] -> [Angstrom]                              5.29177208590000E-01
 [a.u.] -> [s]                                              2.41888432650478E-17
 [a.u.] -> [fs]                                             2.41888432650478E-02
 [a.u.] -> [J]                                              4.35974393937059E-18
 [a.u.] -> [N]                                              8.23872205491840E-08
 [a.u.] -> [K]                                              3.15774647902944E+05
 [a.u.] -> [kJ/mol]                                         2.62549961709828E+03
 [a.u.] -> [kcal/mol]                                       6.27509468713739E+02
 [a.u.] -> [Pa]                                             2.94210107994716E+13
 [a.u.] -> [bar]                                            2.94210107994716E+08
 [a.u.] -> [atm]                                            2.90362800883016E+08
 [a.u.] -> [eV]                                             2.72113838565563E+01
 [a.u.] -> [Hz]                                             6.57968392072181E+15
 [a.u.] -> [1/cm] (wave numbers)                            2.19474631370540E+05
 [a.u./Bohr**2] -> [1/cm]                                   5.14048714338585E+03
 

 CELL_TOP| Volume [angstrom^3]:                                          101.606
 CELL_TOP| Vector a [angstrom     4.000     0.000     0.000    |a| =       4.000
 CELL_TOP| Vector b [angstrom     0.000     5.526     0.000    |b| =       5.526
 CELL_TOP| Vector c [angstrom     0.000     0.000     4.596    |c| =       4.596
 CELL_TOP| Angle (b,c), alpha [degree]:                                   90.000
 CELL_TOP| Angle (a,c), beta  [degree]:                                   90.000
 CELL_TOP| Angle (a,b), gamma [degree]:                                   90.000
 CELL_TOP| Numerically orthorhombic:                                         YES

 GENERATE|  Preliminary Number of Bonds generated:                             0
 GENERATE|  Achieved consistency in connectivity generation.

 CELL| Volume [angstrom^3]:                                              101.606
 CELL| Vector a [angstrom]:       4.000     0.000     0.000    |a| =       4.000
 CELL| Vector b [angstrom]:       0.000     5.526     0.000    |b| =       5.526
 CELL| Vector c [angstrom]:       0.000     0.000     4.596    |c| =       4.596
 CELL| Angle (b,c), alpha [degree]:                                       90.000
 CELL| Angle (a,c), beta  [degree]:                                       90.000
 CELL| Angle (a,b), gamma [degree]:                                       90.000
 CELL| Numerically orthorhombic:                                             YES

 CELL_REF| Volume [angstrom^3]:                                          101.606
 CELL_REF| Vector a [angstrom     4.000     0.000     0.000    |a| =       4.000
 CELL_REF| Vector b [angstrom     0.000     5.526     0.000    |b| =       5.526
 CELL_REF| Vector c [angstrom     0.000     0.000     4.596    |c| =       4.596
 CELL_REF| Angle (b,c), alpha [degree]:                                   90.000
 CELL_REF| Angle (a,c), beta  [degree]:                                   90.000
 CELL_REF| Angle (a,b), gamma [degree]:                                   90.000
 CELL_REF| Numerically orthorhombic:                                         YES

 *******************************************************************************
 *******************************************************************************
 **                                                                           **
 **     #####                         ##              ##                      **
 **    ##   ##            ##          ##              ##                      **
 **   ##     ##                       ##            ######                    **
 **   ##     ##  ##   ##  ##   #####  ##  ##   ####   ##    #####    #####    **
 **   ##     ##  ##   ##  ##  ##      ## ##   ##      ##   ##   ##  ##   ##   **
 **   ##  ## ##  ##   ##  ##  ##      ####     ###    ##   ######   ######    **
 **    ##  ###   ##   ##  ##  ##      ## ##      ##   ##   ##       ##        **
 **     #######   #####   ##   #####  ##  ##  ####    ##    #####   ##        **
 **           ##                                                    ##        **
 **                                                                           **
 **                                                ... make the atoms dance   **
 **                                                                           **
 **            Copyright (C) by CP2K developers group (2000 - 2018)           **
 **                                                                           **
 *******************************************************************************

 DFT| Spin restricted Kohn-Sham (RKS) calculation                            RKS
 DFT| Multiplicity                                                             1
 DFT| Number of spin states                                                    1
 DFT| Charge                                                                   0
 DFT| Self-interaction correction (SIC)                                       NO
 DFT| Cutoffs: density                                              1.000000E-10
 DFT|          gradient                                             1.000000E-10
 DFT|          tau                                                  1.000000E-10
 DFT|          cutoff_smoothing_range                               0.000000E+00
 DFT| XC density smoothing                                                  NONE
 DFT| XC derivatives                                                          PW
 FUNCTIONAL| ROUTINE=NEW
 FUNCTIONAL| PBE:
 FUNCTIONAL| J.P.Perdew, K.Burke, M.Ernzerhof, Phys. Rev. Letter, vol. 77, n 18,
 FUNCTIONAL|  pp. 3865-3868, (1996){spin unpolarized}                           
 vdW POTENTIAL|                                                   Pair Potential
 vdW POTENTIAL|          DFT-D3 (Version 3.1)
 vdW POTENTIAL|          Potential Form: S. Grimme et al, JCP 132: 154104 (2010)
 vdW POTENTIAL|          BJ Damping: S. Grimme et al, JCC 32: 1456 (2011)
 vdW POTENTIAL|          Cutoff Radius [Bohr]:                             20.00
 vdW POTENTIAL|          s6 Scaling Factor:                               1.0000
 vdW POTENTIAL|          a1 Damping Factor:                               0.4289
 vdW POTENTIAL|          s8 Scaling Factor:                               0.7875
 vdW POTENTIAL|          a2 Damping Factor:                               4.4407
 vdW POTENTIAL|          Cutoff for CN calculation:                   0.1000E-05

 QS| Method:                                                                 GPW
 QS| Density plane wave grid type                        NON-SPHERICAL FULLSPACE
 QS| Number of grid levels:                                                    4
 QS| Density cutoff [a.u.]:                                                150.0
 QS| Multi grid cutoff [a.u.]: 1) grid level                               150.0
 QS|                           2) grid level                                50.0
 QS|                           3) grid level                                16.7
 QS|                           4) grid level                                 5.6
 QS| Grid level progression factor:                                          3.0
 QS| Relative density cutoff [a.u.]:                                        15.0
 QS| Consistent realspace mapping and integration 
 QS| Interaction thresholds: eps_pgf_orb:                                1.0E-05
 QS|                         eps_filter_matrix:                          0.0E+00
 QS|                         eps_core_charge:                            1.0E-12
 QS|                         eps_rho_gspace:                             1.0E-10
 QS|                         eps_rho_rspace:                             1.0E-10
 QS|                         eps_gvg_rspace:                             1.0E-05
 QS|                         eps_ppl:                                    1.0E-02
 QS|                         eps_ppnl:                                   1.0E-07


 ATOMIC KIND INFORMATION

  1. Atomic kind: O                                     Number of atoms:       1

     Orbital Basis Set                                     DZVP-MOLOPT-SR-GTH-q6

       Number of orbital shell sets:                                           1
       Number of orbital shells:                                               5
       Number of primitive Cartesian functions:                                5
       Number of Cartesian basis functions:                                   14
       Number of spherical basis functions:                                   13
       Norm type:                                                              2

       Normalised Cartesian orbitals:

                        Set   Shell   Orbital            Exponent    Coefficient

                          1       1    2s               10.389228       0.396646
                                                         3.849621       0.208811
                                                         1.388401      -0.301641
                                                         0.496955      -0.274061
                                                         0.162492      -0.033677

                          1       2    3s               10.389228       0.303673
                                                         3.849621       0.240943
                                                         1.388401      -0.313066
                                                         0.496955      -0.043055
                                                         0.162492       0.213991

                          1       3    3px              10.389228      -1.530415
                                                         3.849621      -1.371928
                                                         1.388401      -0.761951
                                                         0.496955      -0.253695
                                                         0.162492      -0.035541
                          1       3    3py              10.389228      -1.530415
                                                         3.849621      -1.371928
                                                         1.388401      -0.761951
                                                         0.496955      -0.253695
                                                         0.162492      -0.035541
                          1       3    3pz              10.389228      -1.530415
                                                         3.849621      -1.371928
                                                         1.388401      -0.761951
                                                         0.496955      -0.253695
                                                         0.162492      -0.035541

                          1       4    4px              10.389228      -0.565392
                                                         3.849621      -0.038231
                                                         1.388401      -0.382373
                                                         0.496955       0.179070
                                                         0.162492       0.122714
                          1       4    4py              10.389228      -0.565392
                                                         3.849621      -0.038231
                                                         1.388401      -0.382373
                                                         0.496955       0.179070
                                                         0.162492       0.122714
                          1       4    4pz              10.389228      -0.565392
                                                         3.849621      -0.038231
                                                         1.388401      -0.382373
                                                         0.496955       0.179070
                                                         0.162492       0.122714

                          1       5    4dx2             10.389228       1.867377
                                                         3.849621       0.670994
                                                         1.388401       1.353441
                                                         0.496955       0.273538
                                                         0.162492       0.006620
                          1       5    4dxy             10.389228       3.234392
                                                         3.849621       1.162195
                                                         1.388401       2.344229
                                                         0.496955       0.473781
                                                         0.162492       0.011466
                          1       5    4dxz             10.389228       3.234392
                                                         3.849621       1.162195
                                                         1.388401       2.344229
                                                         0.496955       0.473781
                                                         0.162492       0.011466
                          1       5    4dy2             10.389228       1.867377
                                                         3.849621       0.670994
                                                         1.388401       1.353441
                                                         0.496955       0.273538
                                                         0.162492       0.006620
                          1       5    4dyz             10.389228       3.234392
                                                         3.849621       1.162195
                                                         1.388401       2.344229
                                                         0.496955       0.473781
                                                         0.162492       0.011466
                          1       5    4dz2             10.389228       1.867377
                                                         3.849621       0.670994
                                                         1.388401       1.353441
                                                         0.496955       0.273538
                                                         0.162492       0.006620

     GTH Potential information for                                    GTH-PBE-q6

       Description:                       Goedecker-Teter-Hutter pseudopotential
                                           Goedecker et al., PRB 54, 1703 (1996)
                                          Hartwigsen et al., PRB 58, 3641 (1998)
                                                      Krack, TCA 114, 145 (2005)

       Gaussian exponent of the core charge distribution:               8.360253
       Electronic configuration (s p d ...):                               2   4

       Parameters of the local part of the GTH pseudopotential:

                          rloc        C1          C2          C3          C4
                        0.244554  -16.667215    2.487311

       Parameters of the non-local part of the GTH pseudopotential:

                   l      r(l)      h(i,j,l)

                   0    0.220956   18.337458
                   1    0.211332

  2. Atomic kind: H                                     Number of atoms:       2

     Orbital Basis Set                                     DZVP-MOLOPT-SR-GTH-q1

       Number of orbital shell sets:                                           1
       Number of orbital shells:                                               3
       Number of primitive Cartesian functions:                                5
       Number of Cartesian basis functions:                                    5
       Number of spherical basis functions:                                    5
       Norm type:                                                              2

       Normalised Cartesian orbitals:

                        Set   Shell   Orbital            Exponent    Coefficient

                          1       1    2s               10.068468      -0.133023
                                                         2.680223      -0.177618
                                                         0.791502      -0.258419
                                                         0.239116      -0.107525
                                                         0.082193      -0.014019

                          1       2    3s               10.068468       0.344673
                                                         2.680223       1.819821
                                                         0.791502      -0.999069
                                                         0.239116       0.017430
                                                         0.082193       0.082660

                          1       3    3px              10.068468       0.155326
                                                         2.680223       0.367157
                                                         0.791502       0.311480
                                                         0.239116       0.080105
                                                         0.082193       0.033440
                          1       3    3py              10.068468       0.155326
                                                         2.680223       0.367157
                                                         0.791502       0.311480
                                                         0.239116       0.080105
                                                         0.082193       0.033440
                          1       3    3pz              10.068468       0.155326
                                                         2.680223       0.367157
                                                         0.791502       0.311480
                                                         0.239116       0.080105
                                                         0.082193       0.033440

     GTH Potential information for                                    GTH-PBE-q1

       Description:                       Goedecker-Teter-Hutter pseudopotential
                                           Goedecker et al., PRB 54, 1703 (1996)
                                          Hartwigsen et al., PRB 58, 3641 (1998)
                                                      Krack, TCA 114, 145 (2005)

       Gaussian exponent of the core charge distribution:              12.500000
       Electronic configuration (s p d ...):                                   1

       Parameters of the local part of the GTH pseudopotential:

                          rloc        C1          C2          C3          C4
                        0.200000   -4.178900    0.724463


 MOLECULE KIND INFORMATION


 All atoms are their own molecule, skipping detailed information


 TOTAL NUMBERS AND MAXIMUM NUMBERS

  Total number of            - Atomic kinds:                                   2
                             - Atoms:                                          3
                             - Shell sets:                                     3
                             - Shells:                                        11
                             - Primitive Cartesian functions:                 15
                             - Cartesian basis functions:                     24
                             - Spherical basis functions:                     23

  Maximum angular momentum of- Orbital basis functions:                        2
                             - Local part of the GTH pseudopotential:          2
                             - Non-local part of the GTH pseudopotential:      0


 MODULE QUICKSTEP:  ATOMIC COORDINATES IN angstrom

  Atom  Kind  Element       X           Y           Z          Z(eff)       Mass

       1     1 O    8    2.000000    2.763239    2.596309      6.00      15.9994
       2     2 H    1    2.000000    3.526478    2.000000      1.00       1.0079
       3     2 H    1    2.000000    2.000000    2.000000      1.00       1.0079




 SCF PARAMETERS         Density guess:                                    ATOMIC
                        --------------------------------------------------------
                        max_scf:                                              50
                        max_scf_history:                                       0
                        max_diis:                                              4
                        --------------------------------------------------------
                        eps_scf:                                        1.00E-07
                        eps_scf_history:                                0.00E+00
                        eps_diis:                                       1.00E-01
                        eps_eigval:                                     1.00E-05
                        --------------------------------------------------------
                        level_shift [a.u.]:                                 0.00
                        --------------------------------------------------------
                        Outer loop SCF in use 
                        No variables optimised in outer loop
                        eps_scf                                         1.00E-07
                        max_scf                                                5
                        No outer loop optimization
                        step_size                                       5.00E-01

 PW_GRID| Information for grid number                                          1
 PW_GRID| Cutoff [a.u.]                                                    150.0
 PW_GRID| spherical cutoff:                                                   NO
 PW_GRID|   Bounds   1            -22      22                Points:          45
 PW_GRID|   Bounds   2            -30      29                Points:          60
 PW_GRID|   Bounds   3            -24      23                Points:          48
 PW_GRID| Volume element (a.u.^3)  0.5291E-02     Volume (a.u.^3)       685.6686
 PW_GRID| Grid span                                                    FULLSPACE

 PW_GRID| Information for grid number                                          2
 PW_GRID| Cutoff [a.u.]                                                     50.0
 PW_GRID| spherical cutoff:                                                   NO
 PW_GRID|   Bounds   1            -12      12                Points:          25
 PW_GRID|   Bounds   2            -18      17                Points:          36
 PW_GRID|   Bounds   3            -13      13                Points:          27
 PW_GRID| Volume element (a.u.^3)  0.2822E-01     Volume (a.u.^3)       685.6686
 PW_GRID| Grid span                                                    FULLSPACE

 PW_GRID| Information for grid number                                          3
 PW_GRID| Cutoff [a.u.]                                                     16.7
 PW_GRID| spherical cutoff:                                                   NO
 PW_GRID|   Bounds   1             -7       7                Points:          15
 PW_GRID|   Bounds   2            -10       9                Points:          20
 PW_GRID|   Bounds   3             -7       7                Points:          15
 PW_GRID| Volume element (a.u.^3)  0.1524         Volume (a.u.^3)       685.6686
 PW_GRID| Grid span                                                    FULLSPACE

 PW_GRID| Information for grid number                                          4
 PW_GRID| Cutoff [a.u.]                                                      5.6
 PW_GRID| spherical cutoff:                                                   NO
 PW_GRID|   Bounds   1             -4       4                Points:           9
 PW_GRID|   Bounds   2             -6       5                Points:          12
 PW_GRID|   Bounds   3             -4       4                Points:           9
 PW_GRID| Volume element (a.u.^3)  0.7054         Volume (a.u.^3)       685.6686
 PW_GRID| Grid span                                                    FULLSPACE

 POISSON| Solver                                                        PERIODIC
 POISSON| Periodicity                                                        XYZ

 RS_GRID| Information for grid number                                          1
 RS_GRID|   Bounds   1            -22      22                Points:          45
 RS_GRID|   Bounds   2            -30      29                Points:          60
 RS_GRID|   Bounds   3            -24      23                Points:          48

 RS_GRID| Information for grid number                                          2
 RS_GRID|   Bounds   1            -12      12                Points:          25
 RS_GRID|   Bounds   2            -18      17                Points:          36
 RS_GRID|   Bounds   3            -13      13                Points:          27

 RS_GRID| Information for grid number                                          3
 RS_GRID|   Bounds   1             -7       7                Points:          15
 RS_GRID|   Bounds   2            -10       9                Points:          20
 RS_GRID|   Bounds   3             -7       7                Points:          15

 RS_GRID| Information for grid number                                          4
 RS_GRID|   Bounds   1             -4       4                Points:           9
 RS_GRID|   Bounds   2             -6       5                Points:          12
 RS_GRID|   Bounds   3             -4       4                Points:           9

 BFGS| Use rational function optimization for step estimation:                NO
 BFGS| Use model Hessian for initial guess:                                  YES
 BFGS| Restart Hessian:                                                       NO
 BFGS| Trust radius:                                                       0.472

 *******************************************************************************
 ***                     STARTING GEOMETRY OPTIMIZATION                      ***
 ***                                   BFGS                                  ***
 *******************************************************************************

 Number of electrons:                                                          8
 Number of occupied orbitals:                                                  4
 Number of molecular orbitals:                                                 4

 Number of orbital functions:                                                 23
 Number of independent orbital functions:                                     23

 Extrapolation method: initial_guess

 Atomic guess: The first density matrix is obtained in terms of atomic orbitals
               and electronic configurations assigned to each atomic kind

 Guess for atomic kind: O

 Electronic structure
    Total number of core electrons                                          2.00
    Total number of valence electrons                                       6.00
    Total number of electrons                                               8.00
    Multiplicity                                                   not specified
    S   [  2.00] 2.00
    P      4.00


 *******************************************************************************
                  Iteration          Convergence                     Energy [au]
 *******************************************************************************
                          1         1.67054                     -14.836051221656
                          2         2.12470                     -14.897900780399
                          3        0.100150                     -15.654295189160
                          4        0.189307E-01                 -15.655828842239
                          5        0.464435E-02                 -15.655882433232
                          6        0.259395E-02                 -15.655884790195
                          7        0.516014E-04                 -15.655885857622
                          8        0.157374E-05                 -15.655885858066
                          9        0.783512E-06                 -15.655885858066

 Energy components [Hartree]           Total Energy ::          -15.655885858066
                                        Band Energy ::           -2.983129541149
                                     Kinetic Energy ::           11.754767937471
                                   Potential Energy ::          -27.410653795537
                                      Virial (-V/T) ::            2.331875366774
                                        Core Energy ::          -26.153524299614
                                          XC Energy ::           -3.157392735430
                                     Coulomb Energy ::           13.655031176977
                       Total Pseudopotential Energy ::          -37.943031004163
                       Local Pseudopotential Energy ::          -39.220423834999
                    Nonlocal Pseudopotential Energy ::            1.277392830837
                                        Confinement ::            0.347387670777

 Orbital energies  State     L     Occupation   Energy[a.u.]          Energy[eV]

                       1     0          2.000      -0.861523          -23.443221

                       1     1          4.000      -0.315021           -8.572160


 Total Electron Density at R=0:                                         0.000093

 Guess for atomic kind: H

 Electronic structure
    Total number of core electrons                                          0.00
    Total number of valence electrons                                       1.00
    Total number of electrons                                               1.00
    Multiplicity                                                   not specified
    S      1.00


 *******************************************************************************
                  Iteration          Convergence                     Energy [au]
 *******************************************************************************
                          1        0.250972E-02                  -0.375256815885
                          2        0.570752E-04                  -0.375258666164
                          3        0.832405E-09                  -0.375258667122

 Energy components [Hartree]           Total Energy ::           -0.375258667122
                                        Band Energy ::           -0.076317618391
                                     Kinetic Energy ::            0.771356566341
                                   Potential Energy ::           -1.146615233463
                                      Virial (-V/T) ::            1.486491829455
                                        Core Energy ::           -0.456090715790
                                          XC Energy ::           -0.314218627334
                                     Coulomb Energy ::            0.395050676003
                       Total Pseudopotential Energy ::           -1.238482237174
                       Local Pseudopotential Energy ::           -1.238482237174
                    Nonlocal Pseudopotential Energy ::            0.000000000000
                                        Confinement ::            0.110349550431

 Orbital energies  State     L     Occupation   Energy[a.u.]          Energy[eV]

                       1     0          1.000      -0.076318           -2.076708


 Total Electron Density at R=0:                                         0.425022
 Re-scaling the density matrix to get the right number of electrons
                  # Electrons              Trace(P)               Scaling factor
                            8                 8.008                        0.999


 SCF WAVEFUNCTION OPTIMIZATION

  ----------------------------------- OT ---------------------------------------
  Minimizer      : DIIS                : direct inversion
                                         in the iterative subspace
                                         using   7 DIIS vectors
                                         safer DIIS on
  Preconditioner : FULL_ALL            : diagonalization, state selective
  Precond_solver : DEFAULT
  stepsize       :    0.15000000                  energy_gap     :    0.08000000
  eps_taylor     :   0.10000E-15                  max_taylor     :             4
  ----------------------------------- OT ---------------------------------------

  Step     Update method      Time    Convergence         Total energy    Change
  ------------------------------------------------------------------------------
     1 OT DIIS     0.15E+00    0.2     0.28324935       -16.7660000845 -1.68E+01
     2 OT DIIS     0.15E+00    0.2     0.21399933       -17.0154196013 -2.49E-01
     3 OT DIIS     0.15E+00    0.2     0.03735681       -17.1946071910 -1.79E-01
     4 OT DIIS     0.15E+00    0.2     0.01010966       -17.2050672326 -1.05E-02
     5 OT DIIS     0.15E+00    0.2     0.00297995       -17.2061919619 -1.12E-03
     6 OT DIIS     0.15E+00    0.2     0.00085692       -17.2062805612 -8.86E-05
     7 OT DIIS     0.15E+00    0.2     0.00020123       -17.2062867501 -6.19E-06
     8 OT DIIS     0.15E+00    0.2     0.00006701       -17.2062871778 -4.28E-07
     9 OT DIIS     0.15E+00    0.2     0.00002273       -17.2062872230 -4.52E-08
    10 OT DIIS     0.15E+00    0.2     0.00000375       -17.2062872267 -3.74E-09
    11 OT DIIS     0.15E+00    0.3     0.00000075       -17.2062872269 -1.86E-10
    12 OT DIIS     0.15E+00    0.2     0.00000022       -17.2062872269 -5.96E-12
    13 OT DIIS     0.15E+00    0.2     0.00000007       -17.2062872269 -1.33E-12

  *** SCF run converged in    13 steps ***


  Electronic density on regular grids:         -7.9999999163        0.0000000837
  Core density on regular grids:                7.9999999998       -0.0000000002
  Total charge density on r-space grids:        0.0000000836
  Total charge density g-space grids:           0.0000000836

  Overlap energy of the core charge distribution:               0.00000004517142
  Self energy of the core charge distribution:                -44.34715499673765
  Core Hamiltonian energy:                                     12.96103807093529
  Hartree energy:                                              18.42520593885007
  Exchange-correlation energy:                                 -4.24451520856700
  Dispersion energy:                                           -0.00086107657401

  Total energy:                                               -17.20628722692189

  outer SCF iter =    1 RMS gradient =   0.69E-07 energy =        -17.2062872269
  outer SCF loop converged in   1 iterations or   13 steps


 ENERGY| Total FORCE_EVAL ( QS ) energy (a.u.):              -17.206287226921617


 --------  Informations at step =     0 ------------
  Optimization Method        =                 BFGS
  Total Energy               =       -17.2062872269
  Used time                  =                2.718
 ---------------------------------------------------

 --------------------------
 OPTIMIZATION STEP:      1
 --------------------------

 Number of electrons:                                                          8
 Number of occupied orbitals:                                                  4
 Number of molecular orbitals:                                                 4

 Number of orbital functions:                                                 23
 Number of independent orbital functions:                                     23

 Parameters for the always stable predictor-corrector (ASPC) method:

  ASPC order: 0

  B(1) =   1.000000

 Extrapolation method: ASPC


 SCF WAVEFUNCTION OPTIMIZATION

  ----------------------------------- OT ---------------------------------------
  Minimizer      : DIIS                : direct inversion
                                         in the iterative subspace
                                         using   7 DIIS vectors
                                         safer DIIS on
  Preconditioner : FULL_ALL            : diagonalization, state selective
  Precond_solver : DEFAULT
  stepsize       :    0.15000000                  energy_gap     :    0.08000000
  eps_taylor     :   0.10000E-15                  max_taylor     :             4
  ----------------------------------- OT ---------------------------------------

  Step     Update method      Time    Convergence         Total energy    Change
  ------------------------------------------------------------------------------
     1 OT DIIS     0.15E+00    0.1     0.00229903       -17.2062590196 -1.72E+01
     2 OT DIIS     0.15E+00    0.2     0.00091763       -17.2063087903 -4.98E-05
     3 OT DIIS     0.15E+00    0.2     0.00035218       -17.2063174680 -8.68E-06
     4 OT DIIS     0.15E+00    0.2     0.00002004       -17.2063180451 -5.77E-07
     5 OT DIIS     0.15E+00    0.2     0.00000335       -17.2063180482 -3.08E-09
     6 OT DIIS     0.15E+00    0.2     0.00000011       -17.2063180483 -1.19E-10
     7 OT DIIS     0.15E+00    0.2     0.00000002       -17.2063180483  2.66E-13

  *** SCF run converged in     7 steps ***


  Electronic density on regular grids:         -7.9999999803        0.0000000197
  Core density on regular grids:                7.9999999998       -0.0000000002
  Total charge density on r-space grids:        0.0000000195
  Total charge density g-space grids:           0.0000000195

  Overlap energy of the core charge distribution:               0.00000004405848
  Self energy of the core charge distribution:                -44.34715499673765
  Core Hamiltonian energy:                                     12.95796738799647
  Hartree energy:                                              18.42776819064395
  Exchange-correlation energy:                                 -4.24403704520696
  Dispersion energy:                                           -0.00086162903371

  Total energy:                                               -17.20631804827943

  outer SCF iter =    1 RMS gradient =   0.19E-07 energy =        -17.2063180483
  outer SCF loop converged in   1 iterations or    7 steps


 ENERGY| Total FORCE_EVAL ( QS ) energy (a.u.):              -17.206318048280039


 --------  Informations at step =     1 ------------
  Optimization Method        =                 BFGS
  Total Energy               =       -17.2063180483
  Real energy change         =        -0.0000308214
  Predicted change in energy =        -0.0000754847
  Scaling factor             =         0.0000000000
  Step size                  =         0.0210858095
  Trust radius               =         0.4724315332
  Decrease in energy         =                  YES
  Used time                  =                1.539

  Convergence check :
  Max. step size             =         0.0210858095
  Conv. limit for step size  =         0.0030000000
  Convergence in step size   =                   NO
  RMS step size              =         0.0126521830
  Conv. limit for RMS step   =         0.0015000000
  Convergence in RMS step    =                   NO
  Max. gradient              =         0.0015308392
  Conv. limit for gradients  =         0.0004500000
  Conv. for gradients        =                   NO
  RMS gradient               =         0.0008142111
  Conv. limit for RMS grad.  =         0.0003000000
  Conv. for gradients        =                   NO
 ---------------------------------------------------

 --------------------------
 OPTIMIZATION STEP:      2
 --------------------------

 Number of electrons:                                                          8
 Number of occupied orbitals:                                                  4
 Number of molecular orbitals:                                                 4

 Number of orbital functions:                                                 23
 Number of independent orbital functions:                                     23

 Parameters for the always stable predictor-corrector (ASPC) method:

  ASPC order: 0

  B(1) =   2.000000
  B(2) =  -1.000000

 Extrapolation method: ASPC


 SCF WAVEFUNCTION OPTIMIZATION

  ----------------------------------- OT ---------------------------------------
  Minimizer      : DIIS                : direct inversion
                                         in the iterative subspace
                                         using   7 DIIS vectors
                                         safer DIIS on
  Preconditioner : FULL_ALL            : diagonalization, state selective
  Precond_solver : DEFAULT
  stepsize       :    0.15000000                  energy_gap     :    0.08000000
  eps_taylor     :   0.10000E-15                  max_taylor     :             4
  ----------------------------------- OT ---------------------------------------

  Step     Update method      Time    Convergence         Total energy    Change
  ------------------------------------------------------------------------------
     1 OT DIIS     0.15E+00    0.2     0.00311555       -17.2062274378 -1.72E+01
     2 OT DIIS     0.15E+00    0.2     0.00123242       -17.2063192865 -9.18E-05
     3 OT DIIS     0.15E+00    0.2     0.00040269       -17.2063354746 -1.62E-05
     4 OT DIIS     0.15E+00    0.2     0.00002997       -17.2063362136 -7.39E-07
     5 OT DIIS     0.15E+00    0.2     0.00000456       -17.2063362201 -6.50E-09
     6 OT DIIS     0.15E+00    0.2     0.00000015       -17.2063362203 -2.21E-10
     7 OT DIIS     0.15E+00    0.2     0.00000003       -17.2063362203 -4.51E-13

  *** SCF run converged in     7 steps ***


  Electronic density on regular grids:         -7.9999999614        0.0000000386
  Core density on regular grids:                7.9999999998       -0.0000000002
  Total charge density on r-space grids:        0.0000000385
  Total charge density g-space grids:           0.0000000385

  Overlap energy of the core charge distribution:               0.00000004360299
  Self energy of the core charge distribution:                -44.34715499673765
  Core Hamiltonian energy:                                     12.95740353284810
  Hartree energy:                                              18.42801043660093
  Exchange-correlation energy:                                 -4.24373379102062
  Dispersion energy:                                           -0.00086144564027

  Total energy:                                               -17.20633622034651

  outer SCF iter =    1 RMS gradient =   0.33E-07 energy =        -17.2063362203
  outer SCF loop converged in   1 iterations or    7 steps


 !-----------------------------------------------------------------------------!
                     Mulliken Population Analysis

 #  Atom  Element  Kind  Atomic population                           Net charge
       1     O        1          6.271390                             -0.271390
       2     H        2          0.864305                              0.135695
       3     H        2          0.864305                              0.135695
 # Total charge                              8.000000                 -0.000000

 !-----------------------------------------------------------------------------!
  
  Eigenvalues of the occupied subspace spin            1
 ---------------------------------------------
      -0.87303907     -0.42353213     -0.28640806     -0.19977991
 Fermi Energy [eV] :   -5.436288
  
  Lowest Eigenvalues of the unoccupied subspace spin            1
 -----------------------------------------------------
  Reached convergence in           65  iterations 
       0.13711470
  
 HOMO - LUMO gap [eV] :    9.167369

 ENERGY| Total FORCE_EVAL ( QS ) energy (a.u.):              -17.206336220346461


 --------  Informations at step =     2 ------------
  Optimization Method        =                 BFGS
  Total Energy               =       -17.2063362203
  Real energy change         =        -0.0000181721
  Predicted change in energy =        -0.0000177878
  Scaling factor             =         0.0000000000
  Step size                  =         0.0086004800
  Trust radius               =         0.4724315332
  Decrease in energy         =                  YES
  Used time                  =                1.903

  Convergence check :
  Max. step size             =         0.0086004800
  Conv. limit for step size  =         0.0030000000
  Convergence in step size   =                   NO
  RMS step size              =         0.0048848459
  Conv. limit for RMS step   =         0.0015000000
  Convergence in RMS step    =                   NO
  Max. gradient              =         0.0003616721
  Conv. limit for gradients  =         0.0004500000
  Conv. in gradients         =                  YES
  RMS gradient               =         0.0001410174
  Conv. limit for RMS grad.  =         0.0003000000
  Conv. in RMS gradients     =                  YES
 ---------------------------------------------------

 *** MAXIMUM NUMBER OF OPTIMIZATION STEPS REACHED ***
 ***        EXITING GEOMETRY OPTIMIZATION         ***

 -------------------------------------------------------------------------------
 -                                                                             -
 -                                DBCSR STATISTICS                             -
 -                                                                             -
 -------------------------------------------------------------------------------
 COUNTER                                    TOTAL       BLAS       SMM       ACC
 flops     4 x     1 x     4                   64     100.0%      0.0%      0.0%
 flops     4 x     1 x    23                  368     100.0%      0.0%      0.0%
 flops    23 x     1 x     4                  368     100.0%      0.0%      0.0%
 flops     1 x     1 x     1                  534     100.0%      0.0%      0.0%
 flops     5 x     5 x    23                 2300     100.0%      0.0%      0.0%
 flops     1 x     1 x    23                 5842     100.0%      0.0%      0.0%
 flops     5 x     1 x    23                 7590     100.0%      0.0%      0.0%
 flops    23 x     1 x     5                 7590     100.0%      0.0%      0.0%
 flops    23 x     1 x     1                 9016     100.0%      0.0%      0.0%
 flops    13 x     5 x     4                17160     100.0%      0.0%      0.0%
 flops     5 x    13 x     4                17160     100.0%      0.0%      0.0%
 flops     5 x     5 x     4                19800     100.0%      0.0%      0.0%
 flops     4 x     4 x     4                23936     100.0%      0.0%      0.0%
 flops     5 x     1 x     5                28250     100.0%      0.0%      0.0%
 flops    13 x     1 x     5                34580     100.0%      0.0%      0.0%
 flops     5 x     1 x    13                34580     100.0%      0.0%      0.0%
 flops    13 x    13 x     4                44616     100.0%      0.0%      0.0%
 flops    13 x     1 x    13                44954     100.0%      0.0%      0.0%
 flops     5 x     4 x     5                64800     100.0%      0.0%      0.0%
 flops     4 x     4 x    23                83168     100.0%      0.0%      0.0%
 flops    13 x     4 x     5                84240     100.0%      0.0%      0.0%
 flops     5 x     4 x    13                84240     100.0%      0.0%      0.0%
 flops    23 x     4 x     4               101568     100.0%      0.0%      0.0%
 flops    13 x     4 x    13               109512     100.0%      0.0%      0.0%
 flops    23 x     4 x    23               253920     100.0%      0.0%      0.0%
 flops inhomo. stacks                           0       0.0%      0.0%      0.0%
 flops total                         1.080156E+06     100.0%      0.0%      0.0%
 flops max/rank                      1.080156E+06     100.0%      0.0%      0.0%
 matmuls inhomo. stacks                         0       0.0%      0.0%      0.0%
 matmuls total                               3319     100.0%      0.0%      0.0%
 number of processed stacks                  2183     100.0%      0.0%      0.0%
 average stack size                                     1.5       0.0       0.0
 marketing flops                     1.123468E+06
 -------------------------------------------------------------------------------
 # multiplications                           1449
 max memory usage/rank               0.000000E+00
 # max total images/rank                        1
 # max 3D layers                                1
 # MPI messages exchanged                       0
 MPI messages size (bytes):
  total size                         0.000000E+00
  min size                           0.000000E+00
  max size                           0.000000E+00
  average size                       0.000000E+00
 MPI breakdown and total messages size (bytes):
             size <=      128                   0                        0
       128 < size <=     8192                   0                        0
      8192 < size <=    32768                   0                        0
     32768 < size <=   131072                   0                        0
    131072 < size <=  4194304                   0                        0
   4194304 < size <= 16777216                   0                        0
  16777216 < size                               0                        0
 -------------------------------------------------------------------------------

 MEMORY| Estimated peak process memory [MiB]                                   0

 -------------------------------------------------------------------------------
 ----                             MULTIGRID INFO                            ----
 -------------------------------------------------------------------------------
 count for grid        1:           4499          cutoff [a.u.]          150.00
 count for grid        2:           2191          cutoff [a.u.]           50.00
 count for grid        3:           2294          cutoff [a.u.]           16.67
 count for grid        4:           2149          cutoff [a.u.]            5.56
 total gridlevel count  :          11133

 -------------------------------------------------------------------------------
 -                                                                             -
 -                           R E F E R E N C E S                               -
 -                                                                             -
 -------------------------------------------------------------------------------
 
 CP2K version 6.1, the CP2K developers group (2018).
 CP2K is freely available from https://www.cp2k.org/ .

 Schuett, Ole; Messmer, Peter; Hutter, Juerg; VandeVondele, Joost. 
 Electronic Structure Calculations on Graphics Processing Units, John Wiley & Sons, Ltd, 173-190 (2016). 
 GPU-Accelerated Sparse Matrix-Matrix Multiplication for Linear Scaling Density Functional Theory.
 http://dx.doi.org/10.1002/9781118670712.ch8


 Borstnik, U; VandeVondele, J; Weber, V; Hutter, J. 
 PARALLEL COMPUTING, 40 (5-6), 47-58 (2014). 
 Sparse matrix multiplication: The distributed block-compressed sparse
 row library.
 http://dx.doi.org/10.1016/j.parco.2014.03.012


 Hutter, J; Iannuzzi, M; Schiffmann, F; VandeVondele, J. 
 WILEY INTERDISCIPLINARY REVIEWS-COMPUTATIONAL MOLECULAR SCIENCE, 4 (1), 15-25 (2014). 
 CP2K: atomistic simulations of condensed matter systems.
 http://dx.doi.org/10.1002/wcms.1159


 Grimme, S; Ehrlich, S; Goerigk, L. 
 JOURNAL OF COMPUTATIONAL CHEMISTRY, 32, 1456 (2011). 
 Effect of the damping function in dispersion corrected density functional theory.
 http://dx.doi.org/10.1002/jcc.21759


 Grimme, S; Antony, J; Ehrlich, S; Krieg, H. 
 JOURNAL OF CHEMICAL PHYSICS, 132 (15), 154104 (2010). 
 A consistent and accurate ab initio parametrization of density
 functional dispersion correction (DFT-D) for the 94 elements H-Pu.
 http://dx.doi.org/10.1063/1.3382344


 VandeVondele, J; Hutter, J. 
 JOURNAL OF CHEMICAL PHYSICS, 127 (11), 114105 (2007). 
 Gaussian basis sets for accurate calculations on molecular systems in
 gas and condensed phases.
 http://dx.doi.org/10.1063/1.2770708


 Krack, M. 
 THEORETICAL CHEMISTRY ACCOUNTS, 114 (1-3), 145-152 (2005). 
 Pseudopotentials for H to Kr optimized for gradient-corrected
 exchange-correlation functionals.
 http://dx.doi.org/10.1007/s00214-005-0655-y


 VandeVondele, J; Krack, M; Mohamed, F; Parrinello, M; Chassaing, T;
 Hutter, J. COMPUTER PHYSICS COMMUNICATIONS, 167 (2), 103-128 (2005). 
 QUICKSTEP: Fast and accurate density functional calculations using a
 mixed Gaussian and plane waves approach.
 http://dx.doi.org/10.1016/j.cpc.2004.12.014


 Frigo, M; Johnson, SG. 
 PROCEEDINGS OF THE IEEE, 93 (2), 216-231 (2005). 
 The design and implementation of FFTW3.
 http://dx.doi.org/10.1109/JPROC.2004.840301


 Kolafa, J. 
 JOURNAL OF COMPUTATIONAL CHEMISTRY, 25 (3), 335-342 (2004). 
 Time-reversible always stable predictor-corrector method for molecular dynamics of polarizable molecules.
 http://dx.doi.org/10.1002/jcc.10385


 VandeVondele, J; Hutter, J. 
 JOURNAL OF CHEMICAL PHYSICS, 118 (10), 4365-4369 (2003). 
 An efficient orbital transformation method for electronic structure
 calculations.
 http://dx.doi.org/10.1063/1.1543154


 Hartwigsen, C; Goedecker, S; Hutter, J. 
 PHYSICAL REVIEW B, 58 (7), 3641-3662 (1998). 
 Relativistic separable dual-space Gaussian pseudopotentials from H to Rn.
 http://dx.doi.org/10.1103/PhysRevB.58.3641


 Lippert, G; Hutter, J; Parrinello, M. 
 MOLECULAR PHYSICS, 92 (3), 477-487 (1997). 
 A hybrid Gaussian and plane wave density functional scheme.
 http://dx.doi.org/10.1080/002689797170220


 Perdew, JP; Burke, K; Ernzerhof, M. 
 PHYSICAL REVIEW LETTERS, 77 (18), 3865-3868 (1996). 
 Generalized gradient approximation made simple.
 http://dx.doi.org/10.1103/PhysRevLett.77.3865


 Goedecker, S; Teter, M; Hutter, J. 
 PHYSICAL REVIEW B, 54 (3), 1703-1710 (1996). 
 Separable dual-space Gaussian pseudopotentials.
 http://dx.doi.org/10.1103/PhysRevB.54.1703


 -------------------------------------------------------------------------------
 -                                                                             -
 -                                T I M I N G                                  -
 -                                                                             -
 -------------------------------------------------------------------------------
 SUBROUTINE                       CALLS  ASD         SELF TIME        TOTAL TIME
                                MAXIMUM       AVERAGE  MAXIMUM  AVERAGE  MAXIMUM
 CP2K                                 1  1.0    0.011    0.011    6.339    6.339
 cp_geo_opt                           1  2.0    0.000    0.000    6.163    6.163
 geoopt_bfgs                          1  3.0    0.001    0.001    6.163    6.163
 cp_eval_at                           3  4.0    0.000    0.000    6.157    6.157
 qs_forces                            3  5.0    0.000    0.000    6.157    6.157
 qs_energies                          3  6.0    0.000    0.000    5.499    5.499
 scf_env_do_scf                       3  7.0    0.000    0.000    4.964    4.964
 scf_env_do_scf_inner_loop           27  8.0    0.002    0.002    4.526    4.526
 rebuild_ks_matrix                   30  9.7    0.000    0.000    4.377    4.377
 qs_ks_build_kohn_sham_matrix        30 10.7    0.003    0.003    4.377    4.377
 qs_ks_update_qs_env                 30  9.0    0.000    0.000    3.791    3.791
 qs_vxc_create                       30 11.7    0.000    0.000    2.760    2.760
 xc_vxc_pw_create                    30 12.7    0.117    0.117    2.759    2.759
 xc_rho_set_and_dset_create          30 13.7    0.024    0.024    2.048    2.048
 pw_transfer                        573 13.4    0.001    0.001    1.667    1.667
 fft_wrap_pw1pw2                    513 14.5    0.005    0.005    1.649    1.649
 fft_wrap_pw1pw2_150                333 15.6    0.074    0.074    1.582    1.582
 xc_functional_eval                  30 14.7    0.000    0.000    1.478    1.478
 pbe_lda_eval                        30 15.7    1.478    1.478    1.478    1.478
 sum_up_and_integrate                30 11.7    0.006    0.006    1.329    1.329
 integrate_v_rspace                  30 12.7    1.150    1.150    1.323    1.323
 fft3d_s                            514 16.5    1.117    1.117    1.131    1.131
 qs_rho_update_rho                   30  9.1    0.000    0.000    1.033    1.033
 calculate_rho_elec                  30 10.1    0.670    0.670    1.033    1.033
 qs_ks_update_qs_env_forces           3  6.0    0.000    0.000    0.587    0.587
 dbcsr_multiply_generic            1449 12.7    0.043    0.043    0.520    0.520
 init_scf_loop                        3  8.0    0.000    0.000    0.437    0.437
 density_rs2pw                       30 11.1    0.001    0.001    0.359    0.359
 scf_post_calculation_gpw             3  7.0    0.000    0.000    0.327    0.327
 make_lumo                            1  8.0    0.000    0.000    0.326    0.326
 ot_eigensolver                       1  9.0    0.001    0.001    0.325    0.325
 ot_mini                             92 10.6    0.000    0.000    0.305    0.305
 qs_ot_get_derivative                60 11.9    0.000    0.000    0.274    0.274
 make_m2s                          2898 13.7    0.028    0.028    0.234    0.234
 qs_scf_new_mos                      27  9.0    0.000    0.000    0.234    0.234
 qs_scf_loop_do_ot                   27 10.0    0.000    0.000    0.233    0.233
 ot_scf_mini                         27 11.0    0.001    0.001    0.223    0.223
 pw_gather_s                        243 16.0    0.222    0.222    0.222    0.222
 pw_scatter_s                       270 17.0    0.216    0.216    0.216    0.216
 potential_pw2rs                     30 13.7    0.001    0.001    0.170    0.170
 qs_init_subsys                       1  2.0    0.001    0.001    0.136    0.136
 init_scf_run                         3  7.0    0.000    0.000    0.128    0.128
 scf_env_initial_rho_setup            3  8.0    0.000    0.000    0.128    0.128
 make_images                       2898 14.7    0.034    0.034    0.128    0.128
 -------------------------------------------------------------------------------

 The number of warnings for this run is : 0
 
 -------------------------------------------------------------------------------
  **** **** ******  **  PROGRAM ENDED AT                 2020-11-20 23:42:32.048
 ***** ** ***  *** **   PROGRAM RAN ON                             B126028.local
 **    ****   ******    PROGRAM RAN BY                                   leopold
 ***** **    ** ** **   PROGRAM PROCESS ID                                 90326
  **** **  *******  **  PROGRAM STOPPED IN /private/var/folders/8y/7c7qkxcx5vxb7
                                           49rt3sw5sh40000gp/T/tmp_jwlsj3b/f7/52
                                           /02be-3ea4-4f10-b5dd-ae2873cb3cad
