Compiler and run-time data
===========================================================================
RASPA 2.0.37
Compiled as a 64-bits application
Compiler: gcc 9.3.0
Compile Date = Mar 18 2020, Compile Time = 13:46:53

Wed Nov 18 15:24:42 2020
Simulation started on Wednesday, November 18.
The start time was 03:24 PM.

Cpu data:    x86_64
Cpu Model:   MacBookPro11,4
Host name:   B126028.local
OS release:  19.6.0
OS type:     Darwin
OS version:  19H15


Simulation
===========================================================================
Dimensions: 3
Random number seed: 1605709482
RASPA directory set to: /Users/leopold/Personal/Programmierung/qm-codes/RASPA2/src/.libs
String appended to output-files: 
Number of cycles: 100
Number of initializing cycles: 100
Number of equilibration cycles: 0
Print every: 10
Rectangular boundary condition applied
Timestep: 0.000500
	Degrees of freedom:                        57
	Translational Degrees of freedom:          57
	Rotational Degrees of freedom:             0
	Degrees of freedom Framework:              0


Mutual consistent basic set of units:
======================================
Unit of temperature: Kelvin
Unit of length:      1e-10 [m]
Unit of time:        1e-12 [s]
Unit of mass:        1.66054e-27 [kg]
Unit of charge:      1.60218e-19 [C/particle]

Derived units and their conversion factors:
===========================================
Unit of energy:              1.66054e-23 [J]
Unit of force:               1.66054e-13 [N]
Unit of pressure:            1.66054e+07 [Pa]
Unit of velocity:            100 [m/s]
Unit of acceleration:        1e-08 [m^2/s]
Unit of diffusion:           1e-08 [m^2/s]
Unit of dipole moment:       1.60218e-29 [C.m]
Unit of electric potential:  0.000103643 [V]
Unit of electric field:      1.03643e+06 [V]
Unit of polarizability:      1.54587e-35 [-]
Unit of Coulomb potential:   167101.0800066561  [K]
Unit of dielectric constant: 0.0000154587       [s^2 C^2/(kg m^3)]
Unit of wave vectors:        5.3088374589       [cm^1]
Boltzmann constant:          0.8314464919       [-]

Internal conversion factors:
===========================================
Energy to Kelvin:                                    1.2027242847
FH correction factor                                 2.0211930949
Heat capacity conversion factor:                    10.0000088723
From Debye to internal units:                        4.8032067991
Isothermal compressibility conversion factor:        0.0000000602

Energy conversion factors:
===========================================
From mdyne/A to kcal/mol/A^2:           143.933
From mdyne/A to kj/mol/A^2:             602.214
From mdyne/A to K/A^2:                  72429.7
From mdyne A/rad^2 to kcal/mol/deg^2:   0.0438444


Properties computed
===========================================================================
Movies: no
Radial Distribution Function: no
Number of molecules GCMC histogram: no
Histogram of the molecule positions: no
Free energy profiles: no
Pore Size Distribution Function: no
End-to-end distance: no
Histogram of the energy of the system: no
Compute thermodynamic factors: no
Framework spacing histograms: no
Residence times histograms: no
Distance histograms: no
Bend Angle histograms: no
Dihedral angle histograms: no
Angle between planes histograms: no
Molecule properties: no
Infra-red spectra: no
Mean-squared displacement using modified order-N algorithm: no
Velocity-autocorrelation function modified order-N algorithm: no
Rotational velocity-autocorrelation function modified order-N algorithm: no
Molecular orientation-autocorrelation function modified order-N algorithm: no
Bond orientation-autocorrelation function modified order-N algorithm: no
Mean-squared displacement (conventional algorithm): no
Velocity-autocorrelation function (conventional algorithm): no
3D density grid for adsorbates: no
Compute cation an/or adsorption sites: no
dcTST snapshots: no
Compute pressure and stress: no


VTK
===========================================================================
VTK fractional-range position framework atoms: [-0.001000,1.001000] [-0.001000,1.001000] [-0.001000,1.001000]
VTK fractional-range position framework bonds: [-0.151000,1.151000] [-0.151000,1.151000] [-0.151000,1.151000]
VTK fractional-range com-position adsorbate molecules: [-0.101000,1.101000] [-0.101000,1.101000] [-0.101000,1.101000]
VTK fractional-range com-position cation molecules: [-0.101000,1.101000] [-0.101000,1.101000] [-0.101000,1.101000]
	3D free energy grid made for the full simulation-cell


Thermo/Baro-stat NHC parameters
===========================================================================
External temperature: 308 [K]
Beta: 0.00390495 [energy unit]
External Pressure: 10000 [Pa]


Thermostat chain-length: 3
Timescale parameter for thermostat: 0.150000 [ps]
Barostat chain-length:   3
Timescale parameter for barostat:   0.150000 [ps]

Number of Yoshida-Suzuki decomposition steps: 5
Number of respa steps: 5


Method and settings for electrostatics
===============================================================================
Dielectric constant of the medium : 1.000000
Charge from charge-equilibration: no
No electrostatics


CFC-RXMC parameters
===========================================================================
Number of reactions: 0


Rattle parameters
===========================================================================
Distance constraint type: r^2-r^2_0
Bend angle constraint type: theta-theta_0
Dihedral angle constraint type: phi-phi_0
Inversion-bend angle constraint type: chi-chi_0
Out-of-plane distance constraint type: r-r_0


Spectra parameters
===========================================================================
Compute normal modes: no


Minimization parameters
===========================================================================
Generalized coordinates are: Cartesian center-of-mass, elements of the orientational matrix p1,p2,p3 and strain
Potential derivatives are evaluated: analytically
Translation of the system is removed from the generalized Hessian: no
Rotation of the system is removed from the generalized Hessian: no
Maximum step-length: 0.3
Convergence factor: 1
Maximum number of minimization steps: 10000
Use gradients in the line-minimizations: yes
RMS gradient tolerance: 1e-06
Maximum gradient tolerance: 1e-06

Distance constraints: 0
Angle constraints: 0
Dihedral constraints: 0

Improper dihedral constraints: 0

Inversion-bend constraints: 0

Out-of-plane constraints: 0

Harmonic distance constraints: 0
Harmonic angle constraints: 0
Harmonic dihedral constraints: 0

Dihedral mid-point measurements: 0

All framework atoms are fixed

Fixed adsorbate atoms:  
Fixed adsorbate groups (center-of-mass):  
Fixed adsorbate groups (orientation):  

Fixed cation atoms:  
Fixed cation groups (center-of-mass):  
Fixed cation groups (orientation):  


dcTST parameters
===========================================================================
Free energy profiles computed: no
Free energy profiles written every 5000 cycles
Free energy mapping: mapped to a,b,c-coordinates
BarrierPosition:       0.0000000000       0.0000000000       0.0000000000
BarrierNormal:         0.0000000000       0.0000000000       0.0000000000
Start with a molecule on top of the barrier: no
Maximum distance to barrier (e.g. distance to minumum free energy):       0.0000000000 [A]
Maximum trajectory time:      10.0000000000 [ps]
Each configuration is used with 5 different initial velocities


Cbmc parameters
===========================================================================
Biasing method: using only the VDW part
Number of trial positions:                                       10
Number of trial positions (reinsertion):                         10
Number of trial positions (partial reinsertion):                 10
Number of trial positions (identity-change):                     10
Number of trial positions (Gibbs particle transfer):             10
Number of trial positions (insertion/deletion):                  10
Number of trial positions (Widom insertion):                     10
Number of trial positions coupled Torsion-selection:             100
Number of trial positions first bead:                            10
Number of trial positions first bead (reinsertion):              10
Number of trial positions first bead (partial reinsertion):      10
Number of trial positions first bead (identity-change):          10
Number of trial positions first bead (Gibbs particle transfer):  10
Number of trial positions first bead (insertion/deletion):       10
Number of trial positions first bead (Widom insertion):          10
Number of trial moves per open bead:                             150
Target acceptance ratio small-mc scheme:                         0.400000
Energy overlap criteria:                                         1e+07
Minimal Rosenbluth factor:                                       1e-150


Pseudo atoms: 7
===========================================================================
Pseudo Atom[   0] Name UNIT     Oxidation:          Element: H    pdb-name: H    Scat. Types:   1   1 Mass=1.000000000  B-factor:0.000   
                 Charge=1.000000000          Polarization=0.000000000  [A^3] (considered a charged atom and no polarization)  Interactions: yes
                 Anisotropic factor:    0.000 [-] (Absolute), Radius:    1.000 [A], Framework-atom:  no
Pseudo Atom[   1] Name Kr_gas   Oxidation: +0       Element: Kr   pdb-name: Kr   Scat. Types:  37  36 Mass=83.800000000 B-factor:1.000   
                 Charge=0.000000000          Polarization=0.000000000  [A^3] (considered a chargeless atom and no polarization)  Interactions: yes
                 Anisotropic factor:    0.000 [-] (Relative), Radius:    1.000 [A], Framework-atom:  no
Pseudo Atom[   2] Name Xe_gas   Oxidation: +0       Element: Xe   pdb-name: Xe   Scat. Types:  55  54 Mass=131.290000000 B-factor:1.000   
                 Charge=0.000000000          Polarization=0.000000000  [A^3] (considered a chargeless atom and no polarization)  Interactions: yes
                 Anisotropic factor:    0.000 [-] (Relative), Radius:    1.000 [A], Framework-atom:  no
Pseudo Atom[   3] Name Cu       Oxidation:          Element: Cu   pdb-name: Cu   Scat. Types:  30  29 Mass=63.546039732 B-factor:0.000   
                 Charge=0.892145833    (av)  Polarization=6.200000000  [A^3] (considered a charged atom and no polarization)  Interactions: yes
                 Anisotropic factor:    0.000 [-] (Absolute), Radius:    1.220 [A], Framework-atom: yes (charge from structure file)
Pseudo Atom[   4] Name O        Oxidation:          Element: O    pdb-name: O    Scat. Types:   9   8 Mass=15.999404927 B-factor:0.000   
                 Charge=-0.401682292   (av)  Polarization=0.802000000  [A^3] (considered a charged atom and no polarization)  Interactions: yes
                 Anisotropic factor:    0.000 [-] (Absolute), Radius:    0.640 [A], Framework-atom: yes (charge from structure file)
Pseudo Atom[   5] Name C        Oxidation:          Element: C    pdb-name: C    Scat. Types:   7   6 Mass=12.010735897 B-factor:0.000   
                 Charge=0.104812500    (av)  Polarization=1.760000000  [A^3] (considered a charged atom and no polarization)  Interactions: yes
                 Anisotropic factor:    0.000 [-] (Absolute), Radius:    0.750 [A], Framework-atom: yes (charge from structure file)
Pseudo Atom[   6] Name H        Oxidation:          Element: H    pdb-name: H    Scat. Types:   1   1 Mass=1.007940754  B-factor:0.000   
                 Charge=0.042854167    (av)  Polarization=0.666793000  [A^3] (considered a charged atom and no polarization)  Interactions: yes
                 Anisotropic factor:    0.000 [-] (Absolute), Radius:    0.320 [A], Framework-atom: yes (charge from structure file)


Forcefield: Local
===========================================================================
Minimal distance: 1
CutOff VDW : 12.000000 (144.000000)
CutOff VDW switching on: 10.800000 (116.640000)
CutOff charge-charge : 12.000000 (144.000000)
CutOff charge-charge switching on: 7.800000 (60.840000)
CutOff charge-bonddipole : 12.000000 (144.000000)
CutOff charge-bondipole switching on: 8.400000 (70.560000)
CutOff bonddipole-bonddipole : 12.000000 (144.000000)
CutOff bonddipole-bondipole switching on: 9.000000 (81.000000)
Polarization is neglected
TailCorrections are used
All potentials are unshifted !!!!!!

General mixing rule: Lorentz-Berthelot mixing rules are used FIRST for cross terms
0 cross terms are overwritten using the individual mixing rules from the file 'force_field_mixing_rules.def'
and then 0 terms are overwritten using the specific interactions from the file 'force_field.def'

The force field and all the interactions:
 Kr_gas -  Kr_gas [LENNARD_JONES] p_0/k_B: 165.20000 [K], p_1: 3.66000 [A], shift/k_B:   0.00000000 [K], tailcorrection: yes
 Kr_gas -  Xe_gas [LENNARD_JONES] p_0/k_B: 194.84086 [K], p_1: 3.81500 [A], shift/k_B:   0.00000000 [K], tailcorrection: yes
 Kr_gas -      Cu [LENNARD_JONES] p_0/k_B:  20.38895 [K], p_1: 3.38685 [A], shift/k_B:   0.00000000 [K], tailcorrection: yes
 Kr_gas -       O [LENNARD_JONES] p_0/k_B:  70.62881 [K], p_1: 3.38905 [A], shift/k_B:   0.00000000 [K], tailcorrection: yes
 Kr_gas -       C [LENNARD_JONES] p_0/k_B:  93.43311 [K], p_1: 3.54545 [A], shift/k_B:   0.00000000 [K], tailcorrection: yes
 Kr_gas -       H [LENNARD_JONES] p_0/k_B:  60.48283 [K], p_1: 3.11555 [A], shift/k_B:   0.00000000 [K], tailcorrection: yes
 Xe_gas -  Xe_gas [LENNARD_JONES] p_0/k_B: 229.80000 [K], p_1: 3.97000 [A], shift/k_B:   0.00000000 [K], tailcorrection: yes
 Xe_gas -      Cu [LENNARD_JONES] p_0/k_B:  24.04722 [K], p_1: 3.54185 [A], shift/k_B:   0.00000000 [K], tailcorrection: yes
 Xe_gas -       O [LENNARD_JONES] p_0/k_B:  83.30132 [K], p_1: 3.54405 [A], shift/k_B:   0.00000000 [K], tailcorrection: yes
 Xe_gas -       C [LENNARD_JONES] p_0/k_B: 110.19726 [K], p_1: 3.70045 [A], shift/k_B:   0.00000000 [K], tailcorrection: yes
 Xe_gas -       H [LENNARD_JONES] p_0/k_B:  71.33490 [K], p_1: 3.27055 [A], shift/k_B:   0.00000000 [K], tailcorrection: yes
     Cu -      Cu [LENNARD_JONES] p_0/k_B:   2.51640 [K], p_1: 3.11370 [A], shift/k_B:   0.00000000 [K], tailcorrection: yes
     Cu -       O [LENNARD_JONES] p_0/k_B:   8.71699 [K], p_1: 3.11590 [A], shift/k_B:   0.00000000 [K], tailcorrection: yes
     Cu -       C [LENNARD_JONES] p_0/k_B:  11.53150 [K], p_1: 3.27230 [A], shift/k_B:   0.00000000 [K], tailcorrection: yes
     Cu -       H [LENNARD_JONES] p_0/k_B:   7.46478 [K], p_1: 2.84240 [A], shift/k_B:   0.00000000 [K], tailcorrection: yes
      O -       O [LENNARD_JONES] p_0/k_B:  30.19630 [K], p_1: 3.11810 [A], shift/k_B:   0.00000000 [K], tailcorrection: yes
      O -       C [LENNARD_JONES] p_0/k_B:  39.94594 [K], p_1: 3.27450 [A], shift/k_B:   0.00000000 [K], tailcorrection: yes
      O -       H [LENNARD_JONES] p_0/k_B:  25.85854 [K], p_1: 2.84460 [A], shift/k_B:   0.00000000 [K], tailcorrection: yes
      C -       C [LENNARD_JONES] p_0/k_B:  52.84350 [K], p_1: 3.43090 [A], shift/k_B:   0.00000000 [K], tailcorrection: yes
      C -       H [LENNARD_JONES] p_0/k_B:  34.20762 [K], p_1: 3.00100 [A], shift/k_B:   0.00000000 [K], tailcorrection: yes
      H -       H [LENNARD_JONES] p_0/k_B:  22.14390 [K], p_1: 2.57110 [A], shift/k_B:   0.00000000 [K], tailcorrection: yes


MoleculeDefinitions:
===========================================================================
Component 0 [Kr] (Adsorbate molecule)

	MoleculeDefinitions: Local
	Component contains no atoms with charge
	Component contains no atoms with point dipoles (polarization)
	Component has a net charge of 0.000000

	Ideal chain Rosenbluth weight: 1
	Ideal chain total energy: 0.000000

	Critical temparure [K]: 209.350000
	Critical pressure [Pa]: 5502000.000000
	Acentric factor [-]: 0.000000

	RXMC partition factor ln(q/V) [ln(A^(-3))]:       0.0000000000

	Vapour=stable, Liquid=metastable

	MolFraction:           0.3497782705 [-]
	Compressibility:       0.9995757395 [-]

	Density of the bulk fluid phase:       0.3273733254 [kg/m^3]

	Binary mixture EOS parameters:  (0): 0.000000 (1): 0.000000

	Amount of excess molecules:       0.0000000000 [-]

	Conversion factor molecules/unit cell -> mol/kg:       0.1033276686 [-]
	Conversion factor molecules/unit cell -> mg/g:       8.6588586253 [-]
	Conversion factor molecules/unit cell -> cm^3 STP/gr:       2.3159838572 [-]
	Conversion factor molecules/unit cell -> cm^3 STP/cm^3:       2.0359739203 [-]
	Conversion factor mol/kg -> cm^3 STP/gr:      22.4139757476 [-]
	Conversion factor mol/kg -> cm^3 STP/cm^3:      19.7040536064 [-]

	Partial pressure:      3497.78270509980030 [Pa]
	                         26.23337028824850 [Torr]
	                          0.03497782705100 [bar]
	                          0.03452043133580 [atm]

	Fugacity coefficient:       0.9997979936 [-]

	Partial fugacity:      3497.07613069871604 [Pa]
	                         26.22807098024037 [Torr]
	                          0.03497076130699 [bar]
	                          0.03451345798864 [atm]

	Molecule contains 1 number of atoms
		atom:    0  is of type:    1 [    Kr_gas] (group: 0)

	Molecule contains 0 chirality centers

	Molecule contains 1 number of groups

		group: 0 containing: 1 elements
		-------------------------------------------------
		the group represents a point particle
		Mass: 83.800000 [a.u.]
		Mass: 7.611977 [kg/m^3]

		Rotational Degrees of freedom: 0
		Diagonalized inertia vector:       0.0000000000
		                                   0.0000000000
		                                   0.0000000000
		number of atoms: 1
			element: 0 atom: 0 [    Kr_gas] Charge:  0.000000 Anisotropy: 0.000000 Position:  0.000000 -0.000000  0.000000 Connectivity: 0 ()
		number of permanent dipoles: 0
		number of polarizabilities: 0

		Dipole:           0.0000000000 [D]
		Quadrupole:       0.0000000000       0.0000000000       0.0000000000 [D Angstrom]
		Quadrupole tensor [D Angstrom]
				       0.0000000000       0.0000000000       0.0000000000
				       0.0000000000       0.0000000000       0.0000000000
				       0.0000000000       0.0000000000       0.0000000000

	Starting bead for growth               : 0

	Degrees of freedom                     : 0
	Translational degrees of freedom       : 0
	Rotational degrees of freedom          : 0
	Vibrational degrees of freedom         : 0
	Constraint degrees of freedom          : 0

	Number of atoms                        : 1

	Number of constraint bonds             : 0
	Number of constraint bends             : 0
	Number of constraint inversion bends   : 0
	Number of constraint torsions          : 0
	Number of constraint improper torsions : 0
	Number of constraint improper torsions : 0

	Number of bonds                        : 0
	Number of Urey-Bradleys                : 0
	Number of bends                        : 0
	Number of inversion bends              : 0
	Number of torsions                     : 0
	Number of improper torsions            : 0
	Number of improper torsions            : 0

	Number of bond/bond cross terms        : 0
	Number of bond/bend cross terms        : 0
	Number of bend/bend cross terms        : 0
	Number of stretch/torsion cross terms  : 0
	Number of bend/torsion cross terms     : 0

	Number of charges                      : 0
	Number of bond-dipoles                 : 0

	Number of intra Van der Waals                             : 0
	Number of intra charge-charge Coulomb                     : 0
	Number of intra charge-bonddipole Coulomb                 : 0
	Number of intra bonddipole-bonddipole Coulomb             : 0

	Number of excluded intra charge-charge Coulomb                     : 0
	Number of excluded intra charge-bonddipole Coulomb                 : 0
	Number of excluded intra bonddipole-bonddipole Coulomb             : 0

	Number of cbmc-config moves                               : 0

	Particle Moves:             
		ProbabilityTranslationMove:                  16.666667
			TranslationDirection:      XYZ
		Percentage of random translation moves:            0.000000
		Percentage of rotation moves:                      0.000000
		Percentage of random rotation moves:               0.000000
		Percentage of partial reinsertion moves:           0.000000
		Percentage of reinsertion moves:                   16.666667
		Percentage of reinsertion-in-place moves:          0.000000
		Percentage of reinsertion-in-plane moves:          0.000000
		Percentage of identity-change moves:               33.333333
			move 0    component 0 => 0
			move 1    component 0 => 1
		Percentage of swap (insert/delete) moves:          33.333333
		Percentage of CF swap lambda moves:                0.000000
		Percentage of CB/CFMC swap lambda moves:           0.000000
		Percentage of Widom insertion moves:               0.000000
		Percentage of CF-Widom insertion moves:            0.000000
		Percentage of Gibbs Widom insertion moves:         0.000000
		Percentage of surface-area moves:                  0.000000
		Percentage of Gibbs particle-transfer moves:       0.000000
		Percentage of Gibbs identity-change moves:         0.000000
		Percentage of CF Gibbs lambda-transfer moves:      0.000000
		Percentage of CB/CFMC Gibbs lambda-transfer moves: 0.000000
		Percentage of exchange frac./int. particle moves:  0.000000
		Percentage of fractional mol. to other box moves:  0.000000
		Percentage of lambda-change moves:                 0.000000
		Percentage of fractional to integer moves:         0.000000

	System Moves:
		Percentage of parallel-tempering moves:            0.000000
		Percentage of hyper-parallel-tempering moves:      0.000000
		Percentage of parallel-mol-fraction moves:         0.000000
			   Component A: 0 B: 1
		Percentage of chiral inversion moves:              0.000000
		Percentage of Hybrid-NVE moves:                    0.000000
		Percentage of Hybrid-NPH moves:                    0.000000
		Percentage of Hybrid-NPHPR moves:                  0.000000
		Percentage of volume-change moves:                 0.000000
		Percentage of box-shape-change moves:              0.000000
		Percentage of Gibbs volume-change moves:           0.000000
		Percentage of framework-change moves:              0.000000
		Percentage of framework-shift moves:               0.000000
		Percentage of reactive MC moves:                   0.000000

	Moves are restricted: No
	No biased sampling used for this component


	number of identity changes: 2
	--------------------------------------------
	0 (Kr) to 0 (Kr)
	0 (Kr) to 1 (Xe)

	number of identity-config changes: 1
	--------------------------------------------
	nr fixed 1: 0 

	Number of pockets blocked in a unitcell: 0
		Pockets are NOT blocked for this component

Component 1 [Xe] (Adsorbate molecule)

	MoleculeDefinitions: Local
	Component contains no atoms with charge
	Component contains no atoms with point dipoles (polarization)
	Component has a net charge of 0.000000

	Ideal chain Rosenbluth weight: 1
	Ideal chain total energy: 0.000000

	Critical temparure [K]: 289.740000
	Critical pressure [Pa]: 5840000.000000
	Acentric factor [-]: 0.000000

	RXMC partition factor ln(q/V) [ln(A^(-3))]:       0.0000000000

	Vapour=stable, Liquid=metastable

	MolFraction:           0.6502217295 [-]
	Compressibility:       0.9995757395 [-]

	Density of the bulk fluid phase:       0.5128978985 [kg/m^3]

	Binary mixture EOS parameters:  (0): 0.000000 (1): 0.000000

	Amount of excess molecules:       0.0000000000 [-]

	Conversion factor molecules/unit cell -> mol/kg:       0.1033276686 [-]
	Conversion factor molecules/unit cell -> mg/g:      13.5658896053 [-]
	Conversion factor molecules/unit cell -> cm^3 STP/gr:       2.3159838572 [-]
	Conversion factor molecules/unit cell -> cm^3 STP/cm^3:       2.0359739203 [-]
	Conversion factor mol/kg -> cm^3 STP/gr:      22.4139757476 [-]
	Conversion factor mol/kg -> cm^3 STP/cm^3:      19.7040536064 [-]

	Partial pressure:      6502.21729490019970 [Pa]
	                         48.76662971175150 [Torr]
	                          0.06502217294900 [bar]
	                          0.06417189533580 [atm]

	Fugacity coefficient:       0.9994563724 [-]

	Partial fugacity:      6498.68251011129087 [Pa]
	                         48.74011882583468 [Torr]
	                          0.06498682510111 [bar]
	                          0.06413700972229 [atm]

	Molecule contains 1 number of atoms
		atom:    0  is of type:    2 [    Xe_gas] (group: 0)

	Molecule contains 0 chirality centers

	Molecule contains 1 number of groups

		group: 0 containing: 1 elements
		-------------------------------------------------
		the group represents a point particle
		Mass: 131.290000 [a.u.]
		Mass: 11.925734 [kg/m^3]

		Rotational Degrees of freedom: 0
		Diagonalized inertia vector:       0.0000000000
		                                   0.0000000000
		                                   0.0000000000
		number of atoms: 1
			element: 0 atom: 0 [    Xe_gas] Charge:  0.000000 Anisotropy: 0.000000 Position:  0.000000 -0.000000  0.000000 Connectivity: 0 ()
		number of permanent dipoles: 0
		number of polarizabilities: 0

		Dipole:           0.0000000000 [D]
		Quadrupole:       0.0000000000       0.0000000000       0.0000000000 [D Angstrom]
		Quadrupole tensor [D Angstrom]
				       0.0000000000       0.0000000000       0.0000000000
				       0.0000000000       0.0000000000       0.0000000000
				       0.0000000000       0.0000000000       0.0000000000

	Starting bead for growth               : 0

	Degrees of freedom                     : 0
	Translational degrees of freedom       : 0
	Rotational degrees of freedom          : 0
	Vibrational degrees of freedom         : 0
	Constraint degrees of freedom          : 0

	Number of atoms                        : 1

	Number of constraint bonds             : 0
	Number of constraint bends             : 0
	Number of constraint inversion bends   : 0
	Number of constraint torsions          : 0
	Number of constraint improper torsions : 0
	Number of constraint improper torsions : 0

	Number of bonds                        : 0
	Number of Urey-Bradleys                : 0
	Number of bends                        : 0
	Number of inversion bends              : 0
	Number of torsions                     : 0
	Number of improper torsions            : 0
	Number of improper torsions            : 0

	Number of bond/bond cross terms        : 0
	Number of bond/bend cross terms        : 0
	Number of bend/bend cross terms        : 0
	Number of stretch/torsion cross terms  : 0
	Number of bend/torsion cross terms     : 0

	Number of charges                      : 0
	Number of bond-dipoles                 : 0

	Number of intra Van der Waals                             : 0
	Number of intra charge-charge Coulomb                     : 0
	Number of intra charge-bonddipole Coulomb                 : 0
	Number of intra bonddipole-bonddipole Coulomb             : 0

	Number of excluded intra charge-charge Coulomb                     : 0
	Number of excluded intra charge-bonddipole Coulomb                 : 0
	Number of excluded intra bonddipole-bonddipole Coulomb             : 0

	Number of cbmc-config moves                               : 0

	Particle Moves:             
		ProbabilityTranslationMove:                  16.666667
			TranslationDirection:      XYZ
		Percentage of random translation moves:            0.000000
		Percentage of rotation moves:                      0.000000
		Percentage of random rotation moves:               0.000000
		Percentage of partial reinsertion moves:           0.000000
		Percentage of reinsertion moves:                   16.666667
		Percentage of reinsertion-in-place moves:          0.000000
		Percentage of reinsertion-in-plane moves:          0.000000
		Percentage of identity-change moves:               33.333333
			move 0    component 1 => 0
			move 1    component 1 => 1
		Percentage of swap (insert/delete) moves:          33.333333
		Percentage of CF swap lambda moves:                0.000000
		Percentage of CB/CFMC swap lambda moves:           0.000000
		Percentage of Widom insertion moves:               0.000000
		Percentage of CF-Widom insertion moves:            0.000000
		Percentage of Gibbs Widom insertion moves:         0.000000
		Percentage of surface-area moves:                  0.000000
		Percentage of Gibbs particle-transfer moves:       0.000000
		Percentage of Gibbs identity-change moves:         0.000000
		Percentage of CF Gibbs lambda-transfer moves:      0.000000
		Percentage of CB/CFMC Gibbs lambda-transfer moves: 0.000000
		Percentage of exchange frac./int. particle moves:  0.000000
		Percentage of fractional mol. to other box moves:  0.000000
		Percentage of lambda-change moves:                 0.000000
		Percentage of fractional to integer moves:         0.000000

	System Moves:
		Percentage of parallel-tempering moves:            0.000000
		Percentage of hyper-parallel-tempering moves:      0.000000
		Percentage of parallel-mol-fraction moves:         0.000000
			   Component A: 0 B: 1
		Percentage of chiral inversion moves:              0.000000
		Percentage of Hybrid-NVE moves:                    0.000000
		Percentage of Hybrid-NPH moves:                    0.000000
		Percentage of Hybrid-NPHPR moves:                  0.000000
		Percentage of volume-change moves:                 0.000000
		Percentage of box-shape-change moves:              0.000000
		Percentage of Gibbs volume-change moves:           0.000000
		Percentage of framework-change moves:              0.000000
		Percentage of framework-shift moves:               0.000000
		Percentage of reactive MC moves:                   0.000000

	Moves are restricted: No
	No biased sampling used for this component


	number of identity changes: 2
	--------------------------------------------
	1 (Xe) to 0 (Kr)
	1 (Xe) to 1 (Xe)

	number of identity-config changes: 1
	--------------------------------------------
	nr fixed 1: 0 

	Number of pockets blocked in a unitcell: 0
		Pockets are NOT blocked for this component



Framework Status
===========================================================================
Lowenstein's rule obeyed by framework
	Framework is modelled as: rigid

	Number of charges:                               624
	Number of bonddipoles:                           0


System Properties
===========================================================================
Unit cell size: 26.343000 26.343000 26.343000
Cell angles (radians)  alpha: 1.570796 beta: 1.570796 gamma: 1.570796
Cell angles (degrees)  alpha: 90.000000 beta: 90.000000 gamma: 90.000000
Number of unitcells [a]: 1
Number of unitcells [b]: 1
Number of unitcells [c]: 1

RECTANGULAR Boundary conditions: alpha=beta=gamma=90 degrees

Cartesian axis A is collinear with crystallographic axis a
Cartesian axis B is collinear with (axb)xA
Cartesian axis C is collinear with (axb)

lengths of cell vectors:
 26.34300  26.34300  26.34300
cosines of cell angles:
  0.00000   0.00000   0.00000
perpendicular cell widths:
 26.34300  26.34300  26.34300
volume of the cell: 18280.820975607003 (A^3)

Orthogonalization matrix Box
Transforms fractional coordinates abc into orthonormal Cartesian coordinates xyz
Deorthogonalization matrix InverseBox
Transforms orthonormal Cartesian coordinates xyz into fractional coordinates xyz

Box[0]:
	   26.343000000000     0.000000000000     0.000000000000
	    0.000000000000    26.343000000000     0.000000000000
	    0.000000000000     0.000000000000    26.343000000000

Inverse box[0]:
	    0.037960748586     0.000000000000     0.000000000000
	    0.000000000000     0.037960748586     0.000000000000
	    0.000000000000     0.000000000000     0.037960748586


Unitcell box[0]:
	   26.343000000000     0.000000000000     0.000000000000
	    0.000000000000    26.343000000000     0.000000000000
	    0.000000000000     0.000000000000    26.343000000000

Unitcell inverse box[0]:
	    0.037960748586    -0.000000000000    -0.000000000000
	    0.000000000000     0.037960748586    -0.000000000000
	    0.000000000000     0.000000000000     0.037960748586

lengths of cell vectors (inverse box):
  0.03796   0.03796   0.03796
cosines of cell angles (inverse box):
 -0.00000  -0.00000  -0.00000
perpendicular cell widths (inverse):
  0.03796   0.03796   0.03796
volume of the cell: 18280.820975607003 (A^3)

No replicas are used
Framework is simulated as 'rigid'
Number of framework atoms: 624
Number of framework atoms in the unit cell: 624
Framework Mass:  9677.949903787350 [g/mol]
Framework Density:   879.096766601941 [kg/m^3]    1.1375312001947 [cm^3/g]
Helium void fraction:    0.00000000
Available pore volume:    0.00000000 [A^3]    0.00000000 [cm^3/g]
Conversion factor from molecule/unit cell -> kmol/m^3: 0.090835, kmol/m^3 accesible pore volume: inf

Number Of Frameworks (per system): 1
----------------------------------------------------------------------
Framework name: framework_1
Space group: 1
	Identifier: 1
	short international Hermann-Mauguin symbol: P 1
	long international Hermann-Mauguin symbol: P 1
	Hall symbol: P 1
	Number of lattice translations: 1 [ (0,0,0) ]
	acentric/centric: acentric
	chiral: no
	enantiomorphic: no
	number of operators: 1
		'x,y,z'
Framework is simulated as 'rigid'
Shift: 0.000000 0.000000 0.000000
Number of framework atoms: 624
Number of asymmetric atoms: 624
Number of free framework atoms: 0
Number of fixed framework atoms: 624
Number of framework atoms in the unit cell: 624
Framework Mass:  9677.949903787350 [g/mol]
Framework Density:   879.096766601941 [kg/m^3]
Framework has net charge: 0.000000
         largest charge : 0.908000
         smallest charge: -0.430000

Using FULL Host-guest interaction calculation (for testing purposes)

Current Atom Status
===========================================================================
Number of framework atoms        : 624
Number of cations molecules      : 0
Number of adsorbate molecules    : 19
Component    0 :    7 molecules
Component    1 :   12 molecules
Pseudo Atoms    0 [    UNIT]:    0 atoms
Pseudo Atoms    1 [  Kr_gas]:    7 atoms
Pseudo Atoms    2 [  Xe_gas]:   12 atoms
Pseudo Atoms    3 [      Cu]:   48 atoms
Pseudo Atoms    4 [       O]:  192 atoms
Pseudo Atoms    5 [       C]:  288 atoms
Pseudo Atoms    6 [       H]:   96 atoms


Current (initial full energy) Energy Status
===========================================================================

Internal energy:
Host stretch energy:                                            0.00000000
Host UreyBradley energy:                                        0.00000000
Host bend energy:                                               0.00000000
Host inversion-bend energy:                                     0.00000000
Host torsion energy:                                            0.00000000
Host improper torsion energy:                                   0.00000000
Host out-of-plane energy:                                       0.00000000
Host stretch/stretch energy:                                    0.00000000
Host bend/bend energy:                                          0.00000000
Host stretch/bend energy:                                       0.00000000
Host stretch/torsion energy:                                    0.00000000
Host bend/torsion energy:                                       0.00000000

Adsorbate stretch energy:                                       0.00000000
Adsorbate UreyBradley energy:                                   0.00000000
Adsorbate bend energy:                                          0.00000000
Adsorbate inversion-bend energy:                                0.00000000
Adsorbate torsion energy:                                       0.00000000
Adsorbate improper torsion energy:                              0.00000000
Adsorbate out-of-plane energy:                                  0.00000000
Adsorbate stretch/stretch energy:                               0.00000000
Adsorbate bend/bend energy:                                     0.00000000
Adsorbate stretch/bend energy:                                  0.00000000
Adsorbate stretch/torsion energy:                               0.00000000
Adsorbate bend/torsion energy:                                  0.00000000
Adsorbate intra VDW energy:                                     0.00000000
Adsorbate intra charge-charge Coulomb energy:                   0.00000000
Adsorbate intra charge-bonddipole Coulomb energy:               0.00000000
Adsorbate intra bonddipole-bonddipole Coulomb energy:           0.00000000

Cation stretch energy:                                          0.00000000
Cation UreyBradley energy:                                      0.00000000
Cation bend energy:                                             0.00000000
Cation inversion-bend energy:                                   0.00000000
Cation torsion energy:                                          0.00000000
Cation improper torsion energy:                                 0.00000000
Cation out-of-plane energy:                                     0.00000000
Cation stretch/stretch energy:                                  0.00000000
Cation bend/bend energy:                                        0.00000000
Cation stretch/bend energy:                                     0.00000000
Cation stretch/torsion energy:                                  0.00000000
Cation bend/torsion energy:                                     0.00000000
Cation intra VDW energy:                                        0.00000000
Cation intra charge-charge Coulomb energy:                      0.00000000
Cation intra charge-bonddipole Coulomb energy:                  0.00000000
Cation intra bonddipole-bonddipole Coulomb energy:              0.00000000

Host/Host energy:                                             0.00000000
	Host/Host VDW energy:                                         0.00000000
	Host/Host Coulomb energy:                                     0.00000000
	Host/Host charge-charge Real energy:                          0.00000000
	Host/Host charge-charge Fourier energy:                       0.00000000
	Host/Host charge-bonddipole Real energy:                      0.00000000
	Host/Host charge-bonddipole Fourier energy:                   0.00000000
	Host/Host bondipole-bonddipole Real energy:                   0.00000000
	Host/Host bondipole-bonddipole Fourier energy:                0.00000000

Host/Adsorbate energy:                                   -42095.85600055
	Host/Adsorbate VDW energy:                               -42095.85600055
	Host/Adsorbate Coulomb energy:                                0.00000000
	Host/Adsorbate charge-charge Real energy:                     0.00000000
	Host/Adsorbate charge-charge Fourier energy:                  0.00000000
	Host/Adsorbate charge-bonddipole Real energy:                 0.00000000
	Host/Adsorbate charge-bonddipole Fourier energy:              0.00000000
	Host/Adsorbate bondipole-bonddipole Real energy:              0.00000000
	Host/Adsorbate bondipole-bonddipole Fourier energy:           0.00000000

Host/Cation energy:                                           0.00000000
	Host/Cation VDW energy:                                       0.00000000
	Host/Cation Coulomb energy:                                   0.00000000
	Host/Cation charge-charge Real energy:                        0.00000000
	Host/Cation charge-charge Fourier energy:                     0.00000000
	Host/Cation charge-bonddipole Real energy:                    0.00000000
	Host/Cation charge-bonddipole Fourier energy:                 0.00000000
	Host/Cation bondipole-bonddipole Real energy:                 0.00000000
	Host/Cation bondipole-bonddipole Fourier energy:              0.00000000

Adsorbate/Adsorbate energy:                                    -1217.46338985
	Adsorbate/Adsorbate VDW energy:                                -1217.46338985
	Adsorbate/Adsorbate Coulomb energy:                                0.00000000
	Adsorbate/Adsorbate charge-charge Real energy:                     0.00000000
	Adsorbate/Adsorbate charge-charge Fourier energy:                  0.00000000
	Adsorbate/Adsorbate charge-bonddipole Real energy:                 0.00000000
	Adsorbate/Adsorbate charge-bonddipole Fourier energy:              0.00000000
	Adsorbate/Adsorbate bondipole-bonddipole Real energy:              0.00000000
	Adsorbate/Adsorbate bondipole-bonddipole Fourier energy:           0.00000000

Adsorbate/Cation energy:                                           0.00000000
	Adsorbate/Cation VDW energy:                                       0.00000000
	Adsorbate/Cation Coulomb energy:                                   0.00000000
	Adsorbate/Cation charge-charge Real energy:                        0.00000000
	Adsorbate/Cation charge-charge Fourier energy:                     0.00000000
	Adsorbate/Cation charge-bonddipole Real energy:                    0.00000000
	Adsorbate/Cation charge-bonddipole Fourier energy:                 0.00000000
	Adsorbate/Cation bondipole-bonddipole Real energy:                 0.00000000
	Adsorbate/Cation bondipole-bonddipole Fourier energy:              0.00000000

Cation/Cation energy:                                           0.00000000
	Cation/Cation VDW energy:                                       0.00000000
	Cation/Cation Coulomb energy:                                   0.00000000
	Cation/Cation charge-charge Real energy:                        0.00000000
	Cation/Cation charge-charge Fourier energy:                     0.00000000
	Cation/Cation charge-bonddipole Real energy:                    0.00000000
	Cation/Cation charge-bonddipole Fourier energy:                 0.00000000
	Cation/Cation bondipole-bonddipole Real energy:                 0.00000000
	Cation/Cation bondipole-bonddipole Fourier energy:              0.00000000

Polarization energy:
	Host polarization energy:                                     0.00000000
	Adsorbate polarization energy:                                0.00000000
	Cation polarization energy:                                   0.00000000
	Host back-polarization energy:                                     0.00000000
	Adsorbate back-polarization energy:                                0.00000000
	Cation back-polarization energy:                                   0.00000000

Tail-correction energy:                                   -5434.77865603

Distance constraints energy:                                  0.00000000
Angle constraints energy:                                     0.00000000
Dihedral constraints energy:                                  0.00000000
Inversion-bend constraints energy:                            0.00000000
Out-of-plane distance constraints energy:                     0.00000000
Exclusion constraints energy:                                 0.00000000

===================================================================
Total energy: -48748.098046430081
	Total Van der Waals: -43313.319390
	Total Coulomb: 0.000000

	Total Polarization: 0.000000







+++++++++++++++++++++++++++++++++++++++++++++++++++++++++++++++++++++++++
Starting simulation
+++++++++++++++++++++++++++++++++++++++++++++++++++++++++++++++++++++++++

[Init] Current cycle: 0 out of 100
========================================================================================================

Net charge: 0 (F: 0, A: 0, C: 0)
Current Box:  26.34300   0.00000   0.00000 [A]
               0.00000  26.34300   0.00000 [A]
               0.00000   0.00000  26.34300 [A]
Box-lengths:  26.34300  26.34300  26.34300 Box-angles:   90.00000  90.00000  90.00000 [degrees]
Volume: 18280.82098 [A^3]

Loadings per component:
----------------------------------------------------------------------------------------------------------------------------------------------------
Component 0 (Kr), current number of integer/fractional/reaction molecules: 7/0/0, density:  53.28387 [kg/m^3]
	absolute adsorption:   7.00000 [mol/uc],         0.7233 [mol/kg],             60.6120 [mg/g]
	                                                16.2119 [cm^3 STP/g],         14.2518 [cm^3 STP/cm^3]
	excess adsorption:     7.00000 [mol/uc],         0.7233 [mol/kg],             60.6120 [mg/g]
	                                                16.2119 [cm^3 STP/g],         14.2518 [cm^3 STP/cm^3]
----------------------------------------------------------------------------------------------------------------------------------------------------
Component 1 (Xe), current number of integer/fractional/reaction molecules: 12/0/0, density: 143.10888 [kg/m^3]
	absolute adsorption:  12.00000 [mol/uc],         1.2399 [mol/kg],            162.7907 [mg/g]
	                                                27.7918 [cm^3 STP/g],         24.4317 [cm^3 STP/cm^3]
	excess adsorption:    12.00000 [mol/uc],         1.2399 [mol/kg],            162.7907 [mg/g]
	                                                27.7918 [cm^3 STP/g],         24.4317 [cm^3 STP/cm^3]
----------------------------------------------------------------------------------------------------------------------------------------------------
Degrees of freedom: 57 0 57 0
Number of Framework-atoms:    624
Number of Adsorbates:          19 (19 integer, 0 fractional, 0 reaction)
Number of Cations:              0 (0 integer, 0 fractional, 0 reaction

Current total potential energy:            -48748.0980464301 [K]
	Current Host-Host energy:                     0.0000000000 [K]
	Current Host-Adsorbate energy:           -42095.8560005509 [K]
	Current Host-Cation energy:                   0.0000000000 [K]
	Current Adsorbate-Adsorbate energy:       -1217.4633898464 [K]
	Current Cation-Cation energy:                 0.0000000000 [K]
	Current Adsorbate-Cation energy:              0.0000000000 [K]



[Init] Current cycle: 10 out of 100
========================================================================================================

Net charge: 0 (F: 0, A: 0, C: 0)
Current Box:  26.34300   0.00000   0.00000 [A]
               0.00000  26.34300   0.00000 [A]
               0.00000   0.00000  26.34300 [A]
Box-lengths:  26.34300  26.34300  26.34300 Box-angles:   90.00000  90.00000  90.00000 [degrees]
Volume: 18280.82098 [A^3]

Loadings per component:
----------------------------------------------------------------------------------------------------------------------------------------------------
Component 0 (Kr), current number of integer/fractional/reaction molecules: 2/0/0, density:  15.22396 [kg/m^3]
	absolute adsorption:   2.00000 [mol/uc],         0.2067 [mol/kg],             17.3177 [mg/g]
	                                                 4.6320 [cm^3 STP/g],          4.0719 [cm^3 STP/cm^3]
	excess adsorption:     2.00000 [mol/uc],         0.2067 [mol/kg],             17.3177 [mg/g]
	                                                 4.6320 [cm^3 STP/g],          4.0719 [cm^3 STP/cm^3]
----------------------------------------------------------------------------------------------------------------------------------------------------
Component 1 (Xe), current number of integer/fractional/reaction molecules: 6/0/0, density:  71.55444 [kg/m^3]
	absolute adsorption:   6.00000 [mol/uc],         0.6200 [mol/kg],             81.3953 [mg/g]
	                                                13.8959 [cm^3 STP/g],         12.2158 [cm^3 STP/cm^3]
	excess adsorption:     6.00000 [mol/uc],         0.6200 [mol/kg],             81.3953 [mg/g]
	                                                13.8959 [cm^3 STP/g],         12.2158 [cm^3 STP/cm^3]
----------------------------------------------------------------------------------------------------------------------------------------------------
Degrees of freedom: 24 0 24 0
Number of Framework-atoms:    624
Number of Adsorbates:           8 (8 integer, 0 fractional, 0 reaction)
Number of Cations:              0 (0 integer, 0 fractional, 0 reaction

Current total potential energy:            -28306.5025900478 [K]
	Current Host-Host energy:                     0.0000000000 [K]
	Current Host-Adsorbate energy:           -23500.4962357733 [K]
	Current Host-Cation energy:                   0.0000000000 [K]
	Current Adsorbate-Adsorbate energy:         -32.8563244204 [K]
	Current Cation-Cation energy:                 0.0000000000 [K]
	Current Adsorbate-Cation energy:              0.0000000000 [K]



[Init] Current cycle: 20 out of 100
========================================================================================================

Net charge: 0 (F: 0, A: 0, C: 0)
Current Box:  26.34300   0.00000   0.00000 [A]
               0.00000  26.34300   0.00000 [A]
               0.00000   0.00000  26.34300 [A]
Box-lengths:  26.34300  26.34300  26.34300 Box-angles:   90.00000  90.00000  90.00000 [degrees]
Volume: 18280.82098 [A^3]

Loadings per component:
----------------------------------------------------------------------------------------------------------------------------------------------------
Component 0 (Kr), current number of integer/fractional/reaction molecules: 1/0/0, density:   7.61198 [kg/m^3]
	absolute adsorption:   1.00000 [mol/uc],         0.1033 [mol/kg],              8.6589 [mg/g]
	                                                 2.3160 [cm^3 STP/g],          2.0360 [cm^3 STP/cm^3]
	excess adsorption:     1.00000 [mol/uc],         0.1033 [mol/kg],              8.6589 [mg/g]
	                                                 2.3160 [cm^3 STP/g],          2.0360 [cm^3 STP/cm^3]
----------------------------------------------------------------------------------------------------------------------------------------------------
Component 1 (Xe), current number of integer/fractional/reaction molecules: 7/0/0, density:  83.48018 [kg/m^3]
	absolute adsorption:   7.00000 [mol/uc],         0.7233 [mol/kg],             94.9612 [mg/g]
	                                                16.2119 [cm^3 STP/g],         14.2518 [cm^3 STP/cm^3]
	excess adsorption:     7.00000 [mol/uc],         0.7233 [mol/kg],             94.9612 [mg/g]
	                                                16.2119 [cm^3 STP/g],         14.2518 [cm^3 STP/cm^3]
----------------------------------------------------------------------------------------------------------------------------------------------------
Degrees of freedom: 24 0 24 0
Number of Framework-atoms:    624
Number of Adsorbates:           8 (8 integer, 0 fractional, 0 reaction)
Number of Cations:              0 (0 integer, 0 fractional, 0 reaction

Current total potential energy:            -31262.3563734611 [K]
	Current Host-Host energy:                     0.0000000000 [K]
	Current Host-Adsorbate energy:           -26596.7312489209 [K]
	Current Host-Cation energy:                   0.0000000000 [K]
	Current Adsorbate-Adsorbate energy:         131.5469182479 [K]
	Current Cation-Cation energy:                 0.0000000000 [K]
	Current Adsorbate-Cation energy:              0.0000000000 [K]



[Init] Current cycle: 30 out of 100
========================================================================================================

Net charge: 0 (F: 0, A: 0, C: 0)
Current Box:  26.34300   0.00000   0.00000 [A]
               0.00000  26.34300   0.00000 [A]
               0.00000   0.00000  26.34300 [A]
Box-lengths:  26.34300  26.34300  26.34300 Box-angles:   90.00000  90.00000  90.00000 [degrees]
Volume: 18280.82098 [A^3]

Loadings per component:
----------------------------------------------------------------------------------------------------------------------------------------------------
Component 0 (Kr), current number of integer/fractional/reaction molecules: 1/0/0, density:   7.61198 [kg/m^3]
	absolute adsorption:   1.00000 [mol/uc],         0.1033 [mol/kg],              8.6589 [mg/g]
	                                                 2.3160 [cm^3 STP/g],          2.0360 [cm^3 STP/cm^3]
	excess adsorption:     1.00000 [mol/uc],         0.1033 [mol/kg],              8.6589 [mg/g]
	                                                 2.3160 [cm^3 STP/g],          2.0360 [cm^3 STP/cm^3]
----------------------------------------------------------------------------------------------------------------------------------------------------
Component 1 (Xe), current number of integer/fractional/reaction molecules: 7/0/0, density:  83.48018 [kg/m^3]
	absolute adsorption:   7.00000 [mol/uc],         0.7233 [mol/kg],             94.9612 [mg/g]
	                                                16.2119 [cm^3 STP/g],         14.2518 [cm^3 STP/cm^3]
	excess adsorption:     7.00000 [mol/uc],         0.7233 [mol/kg],             94.9612 [mg/g]
	                                                16.2119 [cm^3 STP/g],         14.2518 [cm^3 STP/cm^3]
----------------------------------------------------------------------------------------------------------------------------------------------------
Degrees of freedom: 24 0 24 0
Number of Framework-atoms:    624
Number of Adsorbates:           8 (8 integer, 0 fractional, 0 reaction)
Number of Cations:              0 (0 integer, 0 fractional, 0 reaction

Current total potential energy:            -28861.4398219542 [K]
	Current Host-Host energy:                     0.0000000000 [K]
	Current Host-Adsorbate energy:           -24028.7953779188 [K]
	Current Host-Cation energy:                   0.0000000000 [K]
	Current Adsorbate-Adsorbate energy:         -35.4724012474 [K]
	Current Cation-Cation energy:                 0.0000000000 [K]
	Current Adsorbate-Cation energy:              0.0000000000 [K]



[Init] Current cycle: 40 out of 100
========================================================================================================

Net charge: 0 (F: 0, A: 0, C: 0)
Current Box:  26.34300   0.00000   0.00000 [A]
               0.00000  26.34300   0.00000 [A]
               0.00000   0.00000  26.34300 [A]
Box-lengths:  26.34300  26.34300  26.34300 Box-angles:   90.00000  90.00000  90.00000 [degrees]
Volume: 18280.82098 [A^3]

Loadings per component:
----------------------------------------------------------------------------------------------------------------------------------------------------
Component 0 (Kr), current number of integer/fractional/reaction molecules: 0/0/0, density:   0.00000 [kg/m^3]
	absolute adsorption:   0.00000 [mol/uc],         0.0000 [mol/kg],              0.0000 [mg/g]
	                                                 0.0000 [cm^3 STP/g],          0.0000 [cm^3 STP/cm^3]
	excess adsorption:     0.00000 [mol/uc],         0.0000 [mol/kg],              0.0000 [mg/g]
	                                                 0.0000 [cm^3 STP/g],          0.0000 [cm^3 STP/cm^3]
----------------------------------------------------------------------------------------------------------------------------------------------------
Component 1 (Xe), current number of integer/fractional/reaction molecules: 10/0/0, density: 119.25740 [kg/m^3]
	absolute adsorption:  10.00000 [mol/uc],         1.0333 [mol/kg],            135.6589 [mg/g]
	                                                23.1598 [cm^3 STP/g],         20.3597 [cm^3 STP/cm^3]
	excess adsorption:    10.00000 [mol/uc],         1.0333 [mol/kg],            135.6589 [mg/g]
	                                                23.1598 [cm^3 STP/g],         20.3597 [cm^3 STP/cm^3]
----------------------------------------------------------------------------------------------------------------------------------------------------
Degrees of freedom: 30 0 30 0
Number of Framework-atoms:    624
Number of Adsorbates:          10 (10 integer, 0 fractional, 0 reaction)
Number of Cations:              0 (0 integer, 0 fractional, 0 reaction

Current total potential energy:            -37633.0271887444 [K]
	Current Host-Host energy:                     0.0000000000 [K]
	Current Host-Adsorbate energy:           -32495.1892033844 [K]
	Current Host-Cation energy:                   0.0000000000 [K]
	Current Adsorbate-Adsorbate energy:        -176.6709666831 [K]
	Current Cation-Cation energy:                 0.0000000000 [K]
	Current Adsorbate-Cation energy:              0.0000000000 [K]



[Init] Current cycle: 50 out of 100
========================================================================================================

Net charge: 0 (F: 0, A: 0, C: 0)
Current Box:  26.34300   0.00000   0.00000 [A]
               0.00000  26.34300   0.00000 [A]
               0.00000   0.00000  26.34300 [A]
Box-lengths:  26.34300  26.34300  26.34300 Box-angles:   90.00000  90.00000  90.00000 [degrees]
Volume: 18280.82098 [A^3]

Loadings per component:
----------------------------------------------------------------------------------------------------------------------------------------------------
Component 0 (Kr), current number of integer/fractional/reaction molecules: 0/0/0, density:   0.00000 [kg/m^3]
	absolute adsorption:   0.00000 [mol/uc],         0.0000 [mol/kg],              0.0000 [mg/g]
	                                                 0.0000 [cm^3 STP/g],          0.0000 [cm^3 STP/cm^3]
	excess adsorption:     0.00000 [mol/uc],         0.0000 [mol/kg],              0.0000 [mg/g]
	                                                 0.0000 [cm^3 STP/g],          0.0000 [cm^3 STP/cm^3]
----------------------------------------------------------------------------------------------------------------------------------------------------
Component 1 (Xe), current number of integer/fractional/reaction molecules: 7/0/0, density:  83.48018 [kg/m^3]
	absolute adsorption:   7.00000 [mol/uc],         0.7233 [mol/kg],             94.9612 [mg/g]
	                                                16.2119 [cm^3 STP/g],         14.2518 [cm^3 STP/cm^3]
	excess adsorption:     7.00000 [mol/uc],         0.7233 [mol/kg],             94.9612 [mg/g]
	                                                16.2119 [cm^3 STP/g],         14.2518 [cm^3 STP/cm^3]
----------------------------------------------------------------------------------------------------------------------------------------------------
Degrees of freedom: 21 0 21 0
Number of Framework-atoms:    624
Number of Adsorbates:           7 (7 integer, 0 fractional, 0 reaction)
Number of Cations:              0 (0 integer, 0 fractional, 0 reaction

Current total potential energy:            -28737.2684156135 [K]
	Current Host-Host energy:                     0.0000000000 [K]
	Current Host-Adsorbate energy:           -23977.2153355010 [K]
	Current Host-Cation energy:                   0.0000000000 [K]
	Current Adsorbate-Adsorbate energy:          -8.0541705180 [K]
	Current Cation-Cation energy:                 0.0000000000 [K]
	Current Adsorbate-Cation energy:              0.0000000000 [K]



[Init] Current cycle: 60 out of 100
========================================================================================================

Net charge: 0 (F: 0, A: 0, C: 0)
Current Box:  26.34300   0.00000   0.00000 [A]
               0.00000  26.34300   0.00000 [A]
               0.00000   0.00000  26.34300 [A]
Box-lengths:  26.34300  26.34300  26.34300 Box-angles:   90.00000  90.00000  90.00000 [degrees]
Volume: 18280.82098 [A^3]

Loadings per component:
----------------------------------------------------------------------------------------------------------------------------------------------------
Component 0 (Kr), current number of integer/fractional/reaction molecules: 1/0/0, density:   7.61198 [kg/m^3]
	absolute adsorption:   1.00000 [mol/uc],         0.1033 [mol/kg],              8.6589 [mg/g]
	                                                 2.3160 [cm^3 STP/g],          2.0360 [cm^3 STP/cm^3]
	excess adsorption:     1.00000 [mol/uc],         0.1033 [mol/kg],              8.6589 [mg/g]
	                                                 2.3160 [cm^3 STP/g],          2.0360 [cm^3 STP/cm^3]
----------------------------------------------------------------------------------------------------------------------------------------------------
Component 1 (Xe), current number of integer/fractional/reaction molecules: 6/0/0, density:  71.55444 [kg/m^3]
	absolute adsorption:   6.00000 [mol/uc],         0.6200 [mol/kg],             81.3953 [mg/g]
	                                                13.8959 [cm^3 STP/g],         12.2158 [cm^3 STP/cm^3]
	excess adsorption:     6.00000 [mol/uc],         0.6200 [mol/kg],             81.3953 [mg/g]
	                                                13.8959 [cm^3 STP/g],         12.2158 [cm^3 STP/cm^3]
----------------------------------------------------------------------------------------------------------------------------------------------------
Degrees of freedom: 21 0 21 0
Number of Framework-atoms:    624
Number of Adsorbates:           7 (7 integer, 0 fractional, 0 reaction)
Number of Cations:              0 (0 integer, 0 fractional, 0 reaction

Current total potential energy:            -27998.4714163384 [K]
	Current Host-Host energy:                     0.0000000000 [K]
	Current Host-Adsorbate energy:           -23246.5966061561 [K]
	Current Host-Cation energy:                   0.0000000000 [K]
	Current Adsorbate-Adsorbate energy:         -23.7899817839 [K]
	Current Cation-Cation energy:                 0.0000000000 [K]
	Current Adsorbate-Cation energy:              0.0000000000 [K]



[Init] Current cycle: 70 out of 100
========================================================================================================

Net charge: 0 (F: 0, A: 0, C: 0)
Current Box:  26.34300   0.00000   0.00000 [A]
               0.00000  26.34300   0.00000 [A]
               0.00000   0.00000  26.34300 [A]
Box-lengths:  26.34300  26.34300  26.34300 Box-angles:   90.00000  90.00000  90.00000 [degrees]
Volume: 18280.82098 [A^3]

Loadings per component:
----------------------------------------------------------------------------------------------------------------------------------------------------
Component 0 (Kr), current number of integer/fractional/reaction molecules: 0/0/0, density:   0.00000 [kg/m^3]
	absolute adsorption:   0.00000 [mol/uc],         0.0000 [mol/kg],              0.0000 [mg/g]
	                                                 0.0000 [cm^3 STP/g],          0.0000 [cm^3 STP/cm^3]
	excess adsorption:     0.00000 [mol/uc],         0.0000 [mol/kg],              0.0000 [mg/g]
	                                                 0.0000 [cm^3 STP/g],          0.0000 [cm^3 STP/cm^3]
----------------------------------------------------------------------------------------------------------------------------------------------------
Component 1 (Xe), current number of integer/fractional/reaction molecules: 8/0/0, density:  95.40592 [kg/m^3]
	absolute adsorption:   8.00000 [mol/uc],         0.8266 [mol/kg],            108.5271 [mg/g]
	                                                18.5279 [cm^3 STP/g],         16.2878 [cm^3 STP/cm^3]
	excess adsorption:     8.00000 [mol/uc],         0.8266 [mol/kg],            108.5271 [mg/g]
	                                                18.5279 [cm^3 STP/g],         16.2878 [cm^3 STP/cm^3]
----------------------------------------------------------------------------------------------------------------------------------------------------
Degrees of freedom: 24 0 24 0
Number of Framework-atoms:    624
Number of Adsorbates:           8 (8 integer, 0 fractional, 0 reaction)
Number of Cations:              0 (0 integer, 0 fractional, 0 reaction

Current total potential energy:            -30401.8512108617 [K]
	Current Host-Host energy:                     0.0000000000 [K]
	Current Host-Adsorbate energy:           -25540.1131380818 [K]
	Current Host-Cation energy:                   0.0000000000 [K]
	Current Adsorbate-Adsorbate energy:         -40.4934535696 [K]
	Current Cation-Cation energy:                 0.0000000000 [K]
	Current Adsorbate-Cation energy:              0.0000000000 [K]



[Init] Current cycle: 80 out of 100
========================================================================================================

Net charge: 0 (F: 0, A: 0, C: 0)
Current Box:  26.34300   0.00000   0.00000 [A]
               0.00000  26.34300   0.00000 [A]
               0.00000   0.00000  26.34300 [A]
Box-lengths:  26.34300  26.34300  26.34300 Box-angles:   90.00000  90.00000  90.00000 [degrees]
Volume: 18280.82098 [A^3]

Loadings per component:
----------------------------------------------------------------------------------------------------------------------------------------------------
Component 0 (Kr), current number of integer/fractional/reaction molecules: 0/0/0, density:   0.00000 [kg/m^3]
	absolute adsorption:   0.00000 [mol/uc],         0.0000 [mol/kg],              0.0000 [mg/g]
	                                                 0.0000 [cm^3 STP/g],          0.0000 [cm^3 STP/cm^3]
	excess adsorption:     0.00000 [mol/uc],         0.0000 [mol/kg],              0.0000 [mg/g]
	                                                 0.0000 [cm^3 STP/g],          0.0000 [cm^3 STP/cm^3]
----------------------------------------------------------------------------------------------------------------------------------------------------
Component 1 (Xe), current number of integer/fractional/reaction molecules: 6/0/0, density:  71.55444 [kg/m^3]
	absolute adsorption:   6.00000 [mol/uc],         0.6200 [mol/kg],             81.3953 [mg/g]
	                                                13.8959 [cm^3 STP/g],         12.2158 [cm^3 STP/cm^3]
	excess adsorption:     6.00000 [mol/uc],         0.6200 [mol/kg],             81.3953 [mg/g]
	                                                13.8959 [cm^3 STP/g],         12.2158 [cm^3 STP/cm^3]
----------------------------------------------------------------------------------------------------------------------------------------------------
Degrees of freedom: 18 0 18 0
Number of Framework-atoms:    624
Number of Adsorbates:           6 (6 integer, 0 fractional, 0 reaction)
Number of Cations:              0 (0 integer, 0 fractional, 0 reaction

Current total potential energy:            -26688.4770866308 [K]
	Current Host-Host energy:                     0.0000000000 [K]
	Current Host-Adsorbate energy:           -22005.2468932405 [K]
	Current Host-Cation energy:                   0.0000000000 [K]
	Current Adsorbate-Adsorbate energy:          -0.0000000000 [K]
	Current Cation-Cation energy:                 0.0000000000 [K]
	Current Adsorbate-Cation energy:              0.0000000000 [K]



[Init] Current cycle: 90 out of 100
========================================================================================================

Net charge: 0 (F: 0, A: 0, C: 0)
Current Box:  26.34300   0.00000   0.00000 [A]
               0.00000  26.34300   0.00000 [A]
               0.00000   0.00000  26.34300 [A]
Box-lengths:  26.34300  26.34300  26.34300 Box-angles:   90.00000  90.00000  90.00000 [degrees]
Volume: 18280.82098 [A^3]

Loadings per component:
----------------------------------------------------------------------------------------------------------------------------------------------------
Component 0 (Kr), current number of integer/fractional/reaction molecules: 0/0/0, density:   0.00000 [kg/m^3]
	absolute adsorption:   0.00000 [mol/uc],         0.0000 [mol/kg],              0.0000 [mg/g]
	                                                 0.0000 [cm^3 STP/g],          0.0000 [cm^3 STP/cm^3]
	excess adsorption:     0.00000 [mol/uc],         0.0000 [mol/kg],              0.0000 [mg/g]
	                                                 0.0000 [cm^3 STP/g],          0.0000 [cm^3 STP/cm^3]
----------------------------------------------------------------------------------------------------------------------------------------------------
Component 1 (Xe), current number of integer/fractional/reaction molecules: 6/0/0, density:  71.55444 [kg/m^3]
	absolute adsorption:   6.00000 [mol/uc],         0.6200 [mol/kg],             81.3953 [mg/g]
	                                                13.8959 [cm^3 STP/g],         12.2158 [cm^3 STP/cm^3]
	excess adsorption:     6.00000 [mol/uc],         0.6200 [mol/kg],             81.3953 [mg/g]
	                                                13.8959 [cm^3 STP/g],         12.2158 [cm^3 STP/cm^3]
----------------------------------------------------------------------------------------------------------------------------------------------------
Degrees of freedom: 18 0 18 0
Number of Framework-atoms:    624
Number of Adsorbates:           6 (6 integer, 0 fractional, 0 reaction)
Number of Cations:              0 (0 integer, 0 fractional, 0 reaction

Current total potential energy:            -26945.6360484348 [K]
	Current Host-Host energy:                     0.0000000000 [K]
	Current Host-Adsorbate energy:           -22259.6102798543 [K]
	Current Host-Cation energy:                   0.0000000000 [K]
	Current Adsorbate-Adsorbate energy:          -2.7955751903 [K]
	Current Cation-Cation energy:                 0.0000000000 [K]
	Current Adsorbate-Cation energy:              0.0000000000 [K]



Average Properties at Current cycle: 0 out of 100
========================================================================================

Framework surface area:       0.0000000000 [m^2/g]        0.0000000000 [m^2/cm^3]       0.0000000000 [A^2]
	Framework 0 individual surface area:       0.0000000000 [m^2/g]        0.0000000000 [m^2/cm^3]       0.0000000000 [A^2]
	Cation surface area:                       0.0000000000 [m^2/g]        0.0000000000 [m^2/cm^3]       0.0000000000 [A^2]
Compressibility:       0.0000000000 [-]
Henry coefficients
	Component 0: 0 [mol/kg/Pa] (Rosenbluth factor new: 0 [-])
	Component 1: 0 [mol/kg/Pa] (Rosenbluth factor new: 0 [-])
Energy <U_gh>_1-<U_h>_0 from Widom


Current cycle: 0 out of 100
========================================================================================================

Net charge: 0 (F: 0, A: 0, C: 0)
Current Box:  26.34300   0.00000   0.00000 [A]   Average Box:  26.34300   0.00000   0.00000 [A]
               0.00000  26.34300   0.00000 [A]                  0.00000  26.34300   0.00000 [A]
               0.00000   0.00000  26.34300 [A]                  0.00000   0.00000  26.34300 [A]
Box-lengths:   26.34300  26.34300  26.34300 [A] Average:  26.34300  26.34300  26.34300 [A]
Box-angles:   90.00000  90.00000  90.00000 [degrees] Average:  90.00000  90.00000  90.00000 [degrees]
Volume: 18280.82098 [A^3] Average Volume: 18280.82098 [A^3]

Loadings per component:
----------------------------------------------------------------------------------------------------------------------------------------------------
Component 0 (Kr), current number of integer/fractional/reaction molecules: 0/0/0 (avg.   0.00000), density:   0.00000 (avg.   0.00000) [kg/m^3]
	absolute adsorption:   0.00000 (avg.   0.00000) [mol/uc],   0.0000000000 (avg.   0.0000000000) [mol/kg],   0.0000000000 (avg.   0.0000000000) [mg/g]
	                       0.0000000000 (avg.   0.0000000000) [cm^3 STP/g],    0.0000000000 (avg.   0.0000000000) [cm^3 STP/cm^3]
	excess adsorption:     0.0000000000 (avg.   0.0000000000) [mol/uc],   0.0000000000 (avg.   0.0000000000) [mol/kg],   0.0000000000 (avg.   0.0000000000) [mg/g]
	                       0.0000000000 (avg.   0.0000000000) [cm^3 STP/g],    0.0000000000 (avg.   0.0000000000) [cm^3 STP/cm^3]
Component 1 (Xe), current number of integer/fractional/reaction molecules: 7/0/0 (avg.   7.00000), density:  83.48018 (avg.  83.48018) [kg/m^3]
	absolute adsorption:   7.00000 (avg.   7.00000) [mol/uc],   0.7232936799 (avg.   0.7232936799) [mol/kg],  94.9612272368 (avg.  94.9612272368) [mg/g]
	                      16.2118870001 (avg.  16.2118870001) [cm^3 STP/g],   14.2518174423 (avg.  14.2518174423) [cm^3 STP/cm^3]
	excess adsorption:     7.0000000000 (avg.   7.0000000000) [mol/uc],   0.7232936799 (avg.   0.7232936799) [mol/kg],  94.9612272368 (avg.  94.9612272368) [mg/g]
	                      16.2118870001 (avg.  16.2118870001) [cm^3 STP/g],   14.2518174423 (avg.  14.2518174423) [cm^3 STP/cm^3]
----------------------------------------------------------------------------------------------------------------------------------------------------
Degrees of freedom: 21 0 21 0
Number of Framework-atoms:    624
Number of Adsorbates:           7 (7 integer, 0 fractional, 0 reaction)
Number of Cations:              0 (0 integer, 0 fractional, 0 reaction)

Current total potential energy:            -29162.1214276748 [K]  (avg.      -29162.1214276748)
	Current Host-Host energy:                     0.0000000000 [K]  (avg.           0.0000000000)
	Current Host-Adsorbate energy:           -24382.1982281411 [K]  (avg.      -24382.1982281411)
	Current Host-Cation energy:                   0.0000000000 [K]  (avg.           0.0000000000)
	Current Adsorbate-Adsorbate energy:         -27.9242899393 [K]  (avg.         -27.9242899393)
	Current Cation-Cation energy:                 0.0000000000 [K]  (avg.           0.0000000000)
	Current Adsorbate-Cation energy:              0.0000000000 [K]  (avg.           0.0000000000)



Current cycle: 10 out of 100
========================================================================================================

Net charge: 0 (F: 0, A: 0, C: 0)
Current Box:  26.34300   0.00000   0.00000 [A]   Average Box:  26.34300   0.00000   0.00000 [A]
               0.00000  26.34300   0.00000 [A]                  0.00000  26.34300   0.00000 [A]
               0.00000   0.00000  26.34300 [A]                  0.00000   0.00000  26.34300 [A]
Box-lengths:   26.34300  26.34300  26.34300 [A] Average:  26.34300  26.34300  26.34300 [A]
Box-angles:   90.00000  90.00000  90.00000 [degrees] Average:  90.00000  90.00000  90.00000 [degrees]
Volume: 18280.82098 [A^3] Average Volume: 18280.82098 [A^3]

Loadings per component:
----------------------------------------------------------------------------------------------------------------------------------------------------
Component 0 (Kr), current number of integer/fractional/reaction molecules: 0/0/0 (avg.   0.09091), density:   0.00000 (avg.   0.69200) [kg/m^3]
	absolute adsorption:   0.00000 (avg.   0.09091) [mol/uc],   0.0000000000 (avg.   0.0093934244) [mol/kg],   0.0000000000 (avg.   0.7871689659) [mg/g]
	                       0.0000000000 (avg.   0.2105439870) [cm^3 STP/g],    0.0000000000 (avg.   0.1850885382) [cm^3 STP/cm^3]
	excess adsorption:     0.0000000000 (avg.   0.0909090909) [mol/uc],   0.0000000000 (avg.   0.0093934244) [mol/kg],   0.0000000000 (avg.   0.7871689659) [mg/g]
	                       0.0000000000 (avg.   0.2105439870) [cm^3 STP/g],    0.0000000000 (avg.   0.1850885382) [cm^3 STP/cm^3]
Component 1 (Xe), current number of integer/fractional/reaction molecules: 11/0/0 (avg.   7.81818), density: 131.18314 (avg.  93.23761) [kg/m^3]
	absolute adsorption:  11.00000 (avg.   7.81818) [mol/uc],   1.1366043542 (avg.   0.8078344997) [mol/kg], 149.2247856578 (avg. 106.0605914593) [mg/g]
	                      25.4758224288 (avg.  18.1067828833) [cm^3 STP/g],   22.3957131237 (avg.  15.9176142862) [cm^3 STP/cm^3]
	excess adsorption:    11.0000000000 (avg.   7.8181818182) [mol/uc],   1.1366043542 (avg.   0.8078344997) [mol/kg], 149.2247856578 (avg. 106.0605914593) [mg/g]
	                      25.4758224288 (avg.  18.1067828833) [cm^3 STP/g],   22.3957131237 (avg.  15.9176142862) [cm^3 STP/cm^3]
----------------------------------------------------------------------------------------------------------------------------------------------------
Degrees of freedom: 33 0 33 0
Number of Framework-atoms:    624
Number of Adsorbates:          11 (11 integer, 0 fractional, 0 reaction)
Number of Cations:              0 (0 integer, 0 fractional, 0 reaction)

Current total potential energy:            -40891.9616246722 [K]  (avg.      -30973.9338754586)
	Current Host-Host energy:                     0.0000000000 [K]  (avg.           0.0000000000)
	Current Host-Adsorbate energy:           -35580.3032324880 [K]  (avg.      -26049.1848858691)
	Current Host-Cation energy:                   0.0000000000 [K]  (avg.           0.0000000000)
	Current Adsorbate-Adsorbate energy:        -279.8146836565 [K]  (avg.        -111.4964488596)
	Current Cation-Cation energy:                 0.0000000000 [K]  (avg.           0.0000000000)
	Current Adsorbate-Cation energy:              0.0000000000 [K]  (avg.           0.0000000000)



Current cycle: 20 out of 100
========================================================================================================

Net charge: 0 (F: 0, A: 0, C: 0)
Current Box:  26.34300   0.00000   0.00000 [A]   Average Box:  26.34300   0.00000   0.00000 [A]
               0.00000  26.34300   0.00000 [A]                  0.00000  26.34300   0.00000 [A]
               0.00000   0.00000  26.34300 [A]                  0.00000   0.00000  26.34300 [A]
Box-lengths:   26.34300  26.34300  26.34300 [A] Average:  26.34300  26.34300  26.34300 [A]
Box-angles:   90.00000  90.00000  90.00000 [degrees] Average:  90.00000  90.00000  90.00000 [degrees]
Volume: 18280.82098 [A^3] Average Volume: 18280.82098 [A^3]

Loadings per component:
----------------------------------------------------------------------------------------------------------------------------------------------------
Component 0 (Kr), current number of integer/fractional/reaction molecules: 0/0/0 (avg.   0.23810), density:   0.00000 (avg.   1.81238) [kg/m^3]
	absolute adsorption:   0.00000 (avg.   0.23810) [mol/uc],   0.0000000000 (avg.   0.0246018258) [mol/kg],   0.0000000000 (avg.   2.0616330060) [mg/g]
	                       0.0000000000 (avg.   0.5514247279) [cm^3 STP/g],    0.0000000000 (avg.   0.4847556953) [cm^3 STP/cm^3]
	excess adsorption:     0.0000000000 (avg.   0.2380952381) [mol/uc],   0.0000000000 (avg.   0.0246018258) [mol/kg],   0.0000000000 (avg.   2.0616330060) [mg/g]
	                       0.0000000000 (avg.   0.5514247279) [cm^3 STP/g],    0.0000000000 (avg.   0.4847556953) [cm^3 STP/cm^3]
Component 1 (Xe), current number of integer/fractional/reaction molecules: 8/0/0 (avg.   8.42857), density:  95.40592 (avg. 100.51695) [kg/m^3]
	absolute adsorption:   8.00000 (avg.   8.42857) [mol/uc],   0.8266213485 (avg.   0.8709046350) [mol/kg], 108.5271168421 (avg. 114.3410695300) [mg/g]
	                      18.5278708573 (avg.  19.5204353675) [cm^3 STP/g],   16.2877913627 (avg.  17.1603516142) [cm^3 STP/cm^3]
	excess adsorption:     8.0000000000 (avg.   8.4285714286) [mol/uc],   0.8266213485 (avg.   0.8709046350) [mol/kg], 108.5271168421 (avg. 114.3410695300) [mg/g]
	                      18.5278708573 (avg.  19.5204353675) [cm^3 STP/g],   16.2877913627 (avg.  17.1603516142) [cm^3 STP/cm^3]
----------------------------------------------------------------------------------------------------------------------------------------------------
Degrees of freedom: 24 0 24 0
Number of Framework-atoms:    624
Number of Adsorbates:           8 (8 integer, 0 fractional, 0 reaction)
Number of Cations:              0 (0 integer, 0 fractional, 0 reaction)

Current total potential energy:            -30197.7778261346 [K]  (avg.      -33087.5394200808)
	Current Host-Host energy:                     0.0000000000 [K]  (avg.           0.0000000000)
	Current Host-Adsorbate energy:           -25354.7365473424 [K]  (avg.      -28140.5093940695)
	Current Host-Cation energy:                   0.0000000000 [K]  (avg.           0.0000000000)
	Current Adsorbate-Adsorbate energy:         -21.7966595820 [K]  (avg.         -84.5631731989)
	Current Cation-Cation energy:                 0.0000000000 [K]  (avg.           0.0000000000)
	Current Adsorbate-Cation energy:              0.0000000000 [K]  (avg.           0.0000000000)



Current cycle: 30 out of 100
========================================================================================================

Net charge: 0 (F: 0, A: 0, C: 0)
[...]

Average Cation Intra charge-charge Coulomb energy:
====================================
	Block[ 0]            0.00000 [K]
	Block[ 1]            0.00000 [K]
	Block[ 2]            0.00000 [K]
	Block[ 3]            0.00000 [K]
	Block[ 4]            0.00000 [K]
	------------------------------------------------------------------------------
	Average              0.00000 [K] +/-            0.00000 [K]

Average Cation Intra charge-bonddipole Coulomb energy:
====================================
	Block[ 0]            0.00000 [K]
	Block[ 1]            0.00000 [K]
	Block[ 2]            0.00000 [K]
	Block[ 3]            0.00000 [K]
	Block[ 4]            0.00000 [K]
	------------------------------------------------------------------------------
	Average              0.00000 [K] +/-            0.00000 [K]

Average Cation Intra bonddipole-bonddipole Coulomb energy:
====================================
	Block[ 0]            0.00000 [K]
	Block[ 1]            0.00000 [K]
	Block[ 2]            0.00000 [K]
	Block[ 3]            0.00000 [K]
	Block[ 4]            0.00000 [K]
	------------------------------------------------------------------------------
	Average              0.00000 [K] +/-            0.00000 [K]

Average Host-Host energy:
=========================
	Block[ 0] 0.00000            Van der Waals: 0.00000            Coulomb: 0.00000            [K]
	Block[ 1] 0.00000            Van der Waals: 0.00000            Coulomb: 0.00000            [K]
	Block[ 2] 0.00000            Van der Waals: 0.00000            Coulomb: 0.00000            [K]
	Block[ 3] 0.00000            Van der Waals: 0.00000            Coulomb: 0.00000            [K]
	Block[ 4] 0.00000            Van der Waals: 0.00000            Coulomb: 0.00000            [K]
	------------------------------------------------------------------------------
	Average   0.00000            Van der Waals: 0.000000           Coulomb: 0.00000            [K]
	      +/- 0.00000                       +/- 0.000000                +/- 0.00000            [K]

Average Adsorbate-Adsorbate energy:
===================================
	Block[ 0] -87.70150          Van der Waals: -87.70150          Coulomb: 0.00000            [K]
	Block[ 1] -127.18835         Van der Waals: -127.18835         Coulomb: 0.00000            [K]
	Block[ 2] -22.74946          Van der Waals: -22.74946          Coulomb: 0.00000            [K]
	Block[ 3] -49.23178          Van der Waals: -49.23178          Coulomb: 0.00000            [K]
	Block[ 4] -50.77496          Van der Waals: -50.77496          Coulomb: 0.00000            [K]
	------------------------------------------------------------------------------
	Average   -67.52921          Van der Waals: -67.529208         Coulomb: 0.00000            [K]
	      +/- 72.59124                      +/- 72.591245               +/- 0.00000            [K]

Average Cation-Cation energy:
=============================
	Block[ 0] 0.00000            Van der Waals: 0.00000            Coulomb: 0.00000            [K]
	Block[ 1] 0.00000            Van der Waals: 0.00000            Coulomb: 0.00000            [K]
	Block[ 2] 0.00000            Van der Waals: 0.00000            Coulomb: 0.00000            [K]
	Block[ 3] 0.00000            Van der Waals: 0.00000            Coulomb: 0.00000            [K]
	Block[ 4] 0.00000            Van der Waals: 0.00000            Coulomb: 0.00000            [K]
	------------------------------------------------------------------------------
	Average   0.00000            Van der Waals: 0.000000           Coulomb: 0.00000            [K]
	      +/- 0.00000                       +/- 0.000000                +/- 0.00000            [K]

Average Host-Adsorbate energy:
==============================
	Block[ 0] -28279.79804       Van der Waals: -28279.79804       Coulomb: 0.00000            [K]
	Block[ 1] -26570.16021       Van der Waals: -26570.16021       Coulomb: 0.00000            [K]
	Block[ 2] -21637.25737       Van der Waals: -21637.25737       Coulomb: 0.00000            [K]
	Block[ 3] -22850.99490       Van der Waals: -22850.99490       Coulomb: 0.00000            [K]
	Block[ 4] -21941.95995       Van der Waals: -21941.95995       Coulomb: 0.00000            [K]
	------------------------------------------------------------------------------
	Average   -24256.03409       Van der Waals: -24256.034093      Coulomb: 0.00000            [K]
	      +/- 5346.61925                    +/- 5346.619249             +/- 0.00000            [K]

Average Host-Cation energy:
===========================
	Block[ 0] 0.00000            Van der Waals: 0.00000            Coulomb: 0.00000            [K]
	Block[ 1] 0.00000            Van der Waals: 0.00000            Coulomb: 0.00000            [K]
	Block[ 2] 0.00000            Van der Waals: 0.00000            Coulomb: 0.00000            [K]
	Block[ 3] 0.00000            Van der Waals: 0.00000            Coulomb: 0.00000            [K]
	Block[ 4] 0.00000            Van der Waals: 0.00000            Coulomb: 0.00000            [K]
	------------------------------------------------------------------------------
	Average   0.00000            Van der Waals: 0.000000           Coulomb: 0.00000            [K]
	      +/- 0.00000                       +/- 0.000000                +/- 0.00000            [K]

Average Adsorbate-Cation energy:
================================
	Block[ 0] 0.00000            Van der Waals: 0.00000            Coulomb: 0.00000            [K]
	Block[ 1] 0.00000            Van der Waals: 0.00000            Coulomb: 0.00000            [K]
	Block[ 2] 0.00000            Van der Waals: 0.00000            Coulomb: 0.00000            [K]
	Block[ 3] 0.00000            Van der Waals: 0.00000            Coulomb: 0.00000            [K]
	Block[ 4] 0.00000            Van der Waals: 0.00000            Coulomb: 0.00000            [K]
	------------------------------------------------------------------------------
	Average   0.00000            Van der Waals: 0.000000           Coulomb: 0.00000            [K]
	      +/- 0.00000                       +/- 0.000000                +/- 0.00000            [K]

Host polarization energy:
=======================
	Block[ 0]            0.00000 [K]
	Block[ 1]            0.00000 [K]
	Block[ 2]            0.00000 [K]
	Block[ 3]            0.00000 [K]
	Block[ 4]            0.00000 [K]
	------------------------------------------------------------------------------
	Average              0.00000 [K] +/-            0.00000 [K]

Adsorbate polarization energy:
=======================
	Block[ 0]            0.00000 [K]
	Block[ 1]            0.00000 [K]
	Block[ 2]            0.00000 [K]
	Block[ 3]            0.00000 [K]
	Block[ 4]            0.00000 [K]
	------------------------------------------------------------------------------
	Average              0.00000 [K] +/-            0.00000 [K]

Cation polarization energy:
=======================
	Block[ 0]            0.00000 [K]
	Block[ 1]            0.00000 [K]
	Block[ 2]            0.00000 [K]
	Block[ 3]            0.00000 [K]
	Block[ 4]            0.00000 [K]
	------------------------------------------------------------------------------
	Average              0.00000 [K] +/-            0.00000 [K]

Host back-polarization energy:
=======================
	Block[ 0]            0.00000 [K]
	Block[ 1]            0.00000 [K]
	Block[ 2]            0.00000 [K]
	Block[ 3]            0.00000 [K]
	Block[ 4]            0.00000 [K]
	------------------------------------------------------------------------------
	Average              0.00000 [K] +/-            0.00000 [K]

Adsorbate back-polarization energy:
=======================
	Block[ 0]            0.00000 [K]
	Block[ 1]            0.00000 [K]
	Block[ 2]            0.00000 [K]
	Block[ 3]            0.00000 [K]
	Block[ 4]            0.00000 [K]
	------------------------------------------------------------------------------
	Average              0.00000 [K] +/-            0.00000 [K]

Cation back-polarization energy:
=======================
	Block[ 0]            0.00000 [K]
	Block[ 1]            0.00000 [K]
	Block[ 2]            0.00000 [K]
	Block[ 3]            0.00000 [K]
	Block[ 4]            0.00000 [K]
	------------------------------------------------------------------------------
	Average              0.00000 [K] +/-            0.00000 [K]

Tail-correction energy:
=======================
	Block[ 0]        -4864.52796 [K]
	Block[ 1]        -4819.92666 [K]
	Block[ 2]        -4718.71720 [K]
	Block[ 3]        -4745.28590 [K]
	Block[ 4]        -4728.97131 [K]
	------------------------------------------------------------------------------
	Average          -4775.48581 [K] +/-          113.84833 [K]

Distance-constraints energy:
=======================
	Block[ 0]            0.00000 [K]
	Block[ 1]            0.00000 [K]
	Block[ 2]            0.00000 [K]
	Block[ 3]            0.00000 [K]
	Block[ 4]            0.00000 [K]
	------------------------------------------------------------------------------
	Average              0.00000 [K] +/-            0.00000 [K]

Angle-constraints energy:
=======================
	Block[ 0]            0.00000 [K]
	Block[ 1]            0.00000 [K]
	Block[ 2]            0.00000 [K]
	Block[ 3]            0.00000 [K]
	Block[ 4]            0.00000 [K]
	------------------------------------------------------------------------------
	Average              0.00000 [K] +/-            0.00000 [K]

Dihedral-constraints energy:
=======================
	Block[ 0]            0.00000 [K]
	Block[ 1]            0.00000 [K]
	Block[ 2]            0.00000 [K]
	Block[ 3]            0.00000 [K]
	Block[ 4]            0.00000 [K]
	------------------------------------------------------------------------------
	Average              0.00000 [K] +/-            0.00000 [K]

Inversion-bend constraints energy:
=======================
	Block[ 0]            0.00000 [K]
	Block[ 1]            0.00000 [K]
	Block[ 2]            0.00000 [K]
	Block[ 3]            0.00000 [K]
	Block[ 4]            0.00000 [K]
	------------------------------------------------------------------------------
	Average              0.00000 [K] +/-            0.00000 [K]

Out-of-plane-distance constraints energy:
=======================
	Block[ 0]            0.00000 [K]
	Block[ 1]            0.00000 [K]
	Block[ 2]            0.00000 [K]
	Block[ 3]            0.00000 [K]
	Block[ 4]            0.00000 [K]
	------------------------------------------------------------------------------
	Average              0.00000 [K] +/-            0.00000 [K]

Exclusion-constraints energy:
=======================
	Block[ 0]            0.00000 [K]
	Block[ 1]            0.00000 [K]
	Block[ 2]            0.00000 [K]
	Block[ 3]            0.00000 [K]
	Block[ 4]            0.00000 [K]
	------------------------------------------------------------------------------
	Average              0.00000 [K] +/-            0.00000 [K]

Total energy:
=============
	Block[ 0]       -33232.02750 [K]
	Block[ 1]       -31517.27522 [K]
	Block[ 2]       -26378.72403 [K]
	Block[ 3]       -27645.51258 [K]
	Block[ 4]       -26721.70622 [K]
	------------------------------------------------------------------------------
	Average         -29099.04911 [K] +/-         5520.43651 [K]

Number of molecules:
====================

Component 0 [Kr]
-------------------------------------------------------------
	Block[ 0] 0.25000            [-]
	Block[ 1] 0.35000            [-]
	Block[ 2] 0.10000            [-]
	Block[ 3] 0.30000            [-]
	Block[ 4] 0.25000            [-]
	------------------------------------------------------------------------------
	Average                                      0.2500000000 +/-       0.1673320053 [-]
	Average loading absolute [molecules/unit cell]        0.2500000000 +/-       0.1673320053 [-]
	Average loading absolute [mol/kg framework]          0.0258319171 +/-       0.0172900260 [-]
	Average loading absolute [milligram/gram framework]          2.1647146563 +/-       1.4489041774 [-]
	Average loading absolute [cm^3 (STP)/gr framework]          0.5789959643 +/-       0.3875382231 [-]
	Average loading absolute [cm^3 (STP)/cm^3 framework]          0.5089934801 +/-       0.3406835988 [-]

	Block[ 0] 0.25000            [-]
	Block[ 1] 0.35000            [-]
	Block[ 2] 0.10000            [-]
	Block[ 3] 0.30000            [-]
	Block[ 4] 0.25000            [-]
	------------------------------------------------------------------------------
	Average                                      0.2500000000 +/-       0.1673320053 [-]
	Average loading excess [molecules/unit cell]        0.2500000000 +/-       0.1673320053 [-]
	Average loading excess [mol/kg framework]          0.0258319171 +/-       0.0172900260 [-]
	Average loading excess [milligram/gram framework]          2.1647146563 +/-       1.4489041774 [-]
	Average loading excess [cm^3 (STP)/gr framework]          0.5789959643 +/-       0.3875382231 [-]
	Average loading excess [cm^3 (STP)/cm^3 framework]          0.5089934801 +/-       0.3406835988 [-]

Component 1 [Xe]
-------------------------------------------------------------
	Block[ 0] 8.45000            [-]
	Block[ 1] 7.75000            [-]
	Block[ 2] 6.45000            [-]
	Block[ 3] 6.70000            [-]
	Block[ 4] 6.50000            [-]
	------------------------------------------------------------------------------
	Average                                      7.1700000000 +/-       1.5907231060 [-]
	Average loading absolute [molecules/unit cell]        7.1700000000 +/-       1.5907231060 [-]
	Average loading absolute [mol/kg framework]          0.7408593836 +/-       0.1643657099 [-]
	Average loading absolute [milligram/gram framework]         97.2674284697 +/-      21.5795740487 [-]
	Average loading absolute [cm^3 (STP)/gr framework]         16.6056042559 +/-       3.6840890347 [-]
	Average loading absolute [cm^3 (STP)/cm^3 framework]         14.5979330088 +/-       3.2386707583 [-]

	Block[ 0] 8.45000            [-]
	Block[ 1] 7.75000            [-]
	Block[ 2] 6.45000            [-]
	Block[ 3] 6.70000            [-]
	Block[ 4] 6.50000            [-]
	------------------------------------------------------------------------------
	Average                                      7.1700000000 +/-       1.5907231060 [-]
	Average loading excess [molecules/unit cell]        7.1700000000 +/-       1.5907231060 [-]
	Average loading excess [mol/kg framework]          0.7408593836 +/-       0.1643657099 [-]
	Average loading excess [milligram/gram framework]         97.2674284697 +/-      21.5795740487 [-]
	Average loading excess [cm^3 (STP)/gr framework]         16.6056042559 +/-       3.6840890347 [-]
	Average loading excess [cm^3 (STP)/cm^3 framework]         14.5979330088 +/-       3.2386707583 [-]


Average Widom Rosenbluth factor:
================================
	Block[ 0] 0 [-]
	Block[ 1] 0 [-]
	Block[ 2] 0 [-]
	Block[ 3] 0 [-]
	Block[ 4] 0 [-]
	------------------------------------------------------------------------------
	[Kr] Average Widom Rosenbluth-weight:   0 +/- 0.000000 [-]
	Block[ 0] 0 [-]
	Block[ 1] 0 [-]
	Block[ 2] 0 [-]
	Block[ 3] 0 [-]
	Block[ 4] 0 [-]
	------------------------------------------------------------------------------
	[Xe] Average Widom Rosenbluth-weight:   0 +/- 0.000000 [-]

Average Widom chemical potential:
=================================
	Block[ 0] 0 [-]
	Block[ 1] 0 [-]
	Block[ 2] 0 [-]
	Block[ 3] 0 [-]
	Block[ 4] 0 [-]
	------------------------------------------------------------------------------
	[Kr] Average chemical potential:   0 +/- 0.000000 [K]
	Block[ 0] 0 [-]
	Block[ 1] 0 [-]
	Block[ 2] 0 [-]
	Block[ 3] 0 [-]
	Block[ 4] 0 [-]
	------------------------------------------------------------------------------
	[Xe] Average chemical potential:   0 +/- 0.000000 [K]

Average Widom Ideal-gas contribution:
=====================================
	Block[ 0] 0 [-]
	Block[ 1] 0 [-]
	Block[ 2] 0 [-]
	Block[ 3] 0 [-]
	Block[ 4] 0 [-]
	------------------------------------------------------------------------------
	[Kr] Average Widom Ideal-gas chemical potential:   0 +/- 0.000000 [-]
	Block[ 0] 0 [-]
	Block[ 1] 0 [-]
	Block[ 2] 0 [-]
	Block[ 3] 0 [-]
	Block[ 4] 0 [-]
	------------------------------------------------------------------------------
	[Xe] Average Widom Ideal-gas chemical potential:   0 +/- 0.000000 [-]

Average Widom excess contribution:
==================================
	Block[ 0] 0 [-]
	Block[ 1] 0 [-]
	Block[ 2] 0 [-]
	Block[ 3] 0 [-]
	Block[ 4] 0 [-]
	------------------------------------------------------------------------------
	[Kr] Average Widom excess chemical potential:   0 +/- 0.000000 [-]
	Block[ 0] 0 [-]
	Block[ 1] 0 [-]
	Block[ 2] 0 [-]
	Block[ 3] 0 [-]
	Block[ 4] 0 [-]
	------------------------------------------------------------------------------
	[Xe] Average Widom excess chemical potential:   0 +/- 0.000000 [-]

Average Gibbs Widom Rosenbluth factor:
======================================
	Block[ 0] 0 [-]
	Block[ 1] 0 [-]
	Block[ 2] 0 [-]
	Block[ 3] 0 [-]
	Block[ 4] 0 [-]
	------------------------------------------------------------------------------
	[Kr] Average Gibbs Widom Rosenbluth-weight:   0 +/- 0.000000 [-]
	Block[ 0] 0 [-]
	Block[ 1] 0 [-]
	Block[ 2] 0 [-]
	Block[ 3] 0 [-]
	Block[ 4] 0 [-]
	------------------------------------------------------------------------------
	[Xe] Average Gibbs Widom Rosenbluth-weight:   0 +/- 0.000000 [-]

Average Gibbs Widom chemical potential:
=======================================
	Block[ 0] 0 [-]
	Block[ 1] 0 [-]
	Block[ 2] 0 [-]
	Block[ 3] 0 [-]
	Block[ 4] 0 [-]
	------------------------------------------------------------------------------
	[Kr] Average Gibbs chemical potential:   0 +/- 0.000000 [K]
	Block[ 0] 0 [-]
	Block[ 1] 0 [-]
	Block[ 2] 0 [-]
	Block[ 3] 0 [-]
	Block[ 4] 0 [-]
	------------------------------------------------------------------------------
	[Xe] Average Gibbs chemical potential:   0 +/- 0.000000 [K]

Average Gibbs Widom Ideal-gas contribution:
===========================================
	Block[ 0] 0 [-]
	Block[ 1] 0 [-]
	Block[ 2] 0 [-]
	Block[ 3] 0 [-]
	Block[ 4] 0 [-]
	------------------------------------------------------------------------------
	[Kr] Average Gibbs Ideal-gas chemical potential:   0 +/- 0.000000 [-]
	Block[ 0] 0 [-]
	Block[ 1] 0 [-]
	Block[ 2] 0 [-]
	Block[ 3] 0 [-]
	Block[ 4] 0 [-]
	------------------------------------------------------------------------------
	[Xe] Average Gibbs Ideal-gas chemical potential:   0 +/- 0.000000 [-]

Average Gibbs Widom excess contribution:
===========================================
	Block[ 0] 0 [-]
	Block[ 1] 0 [-]
	Block[ 2] 0 [-]
	Block[ 3] 0 [-]
	Block[ 4] 0 [-]
	------------------------------------------------------------------------------
	[Kr] Average Gibbs excess chemical potential:   0 +/- 0.000000 [-]
	Block[ 0] 0 [-]
	Block[ 1] 0 [-]
	Block[ 2] 0 [-]
	Block[ 3] 0 [-]
	Block[ 4] 0 [-]
	------------------------------------------------------------------------------
	[Xe] Average Gibbs excess chemical potential:   0 +/- 0.000000 [-]

Average Henry coefficient:
==========================
	Block[ 0] 0 [mol/kg/Pa]
	Block[ 1] 0 [mol/kg/Pa]
	Block[ 2] 0 [mol/kg/Pa]
	Block[ 3] 0 [mol/kg/Pa]
	Block[ 4] 0 [mol/kg/Pa]
	------------------------------------------------------------------------------
	[Kr] Average Henry coefficient:  0 +/- 0 [mol/kg/Pa]
	Block[ 0] 0 [mol/kg/Pa]
	Block[ 1] 0 [mol/kg/Pa]
	Block[ 2] 0 [mol/kg/Pa]
	Block[ 3] 0 [mol/kg/Pa]
	Block[ 4] 0 [mol/kg/Pa]
	------------------------------------------------------------------------------
	[Xe] Average Henry coefficient:  0 +/- 0 [mol/kg/Pa]

Average adsorption energy <U_gh>_1-<U_h>_0 obtained from Widom-insertion:
(Note: the total heat of adsorption is dH=<U_gh>_1-<U_h>_0 - <U_g> - RT)
=========================================================================

Simulation finished,  0 warnings


Wed Nov 18 15:24:43 2020
Simulation finished on Wednesday, November 18.
The end time was 03:24 PM.

