 DBCSR| Multiplication driver                                               BLAS
 DBCSR| Multrec recursion limit                                              512
 DBCSR| Multiplication stack size                                           1000
 DBCSR| Maximum elements for images                                    UNLIMITED
 DBCSR| Multiplicative factor virtual images                                   1
 DBCSR| Multiplication size stacks                                             3


  **** **** ******  **  PROGRAM STARTED AT               2020-11-20 03:53:56.520
 ***** ** ***  *** **   PROGRAM STARTED ON                         B126028.local
 **    ****   ******    PROGRAM STARTED BY                               leopold
 ***** **    ** ** **   PROGRAM PROCESS ID                                 88941
  **** **  *******  **  PROGRAM STARTED IN /private/var/folders/8y/7c7qkxcx5vxb7
                                           49rt3sw5sh40000gp/T/tmpqzndl1tn/84/15
                                           /0729-a317-4af9-b6c7-78df8e7ffd80

 CP2K| version string:                                          CP2K version 6.1
 CP2K| source code revision number:                                    svn:18464
 CP2K| cp2kflags: libint fftw3 libxc no_statm_access accelerate                 
 CP2K| is freely available from                            https://www.cp2k.org/
 CP2K| Program compiled at                          Tue Nov 17 02:38:14 CET 2020
 CP2K| Program compiled on                                         B126028.local
 CP2K| Program compiled for                       Darwin-IntelMacintosh-gfortran
 CP2K| Data directory path    /private/tmp/cp2k-20201117-55277-73z00v/cp2k-6.1/d
 CP2K| Input file name                                                 aiida.inp

 GLOBAL| Force Environment number                                              1
 GLOBAL| Basis set file name                                        BASIS_MOLOPT
 GLOBAL| Potential file name                                      GTH_POTENTIALS
 GLOBAL| MM Potential file name                                     MM_POTENTIAL
 GLOBAL| Coordinate file name                                   aiida.coords.xyz
 GLOBAL| Method name                                                        CP2K
 GLOBAL| Project name                                                      aiida
 GLOBAL| Preferred FFT library                                             FFTW3
 GLOBAL| Preferred diagonalization lib.                                       SL
 GLOBAL| Run type                                                        GEO_OPT
 GLOBAL| All-to-all communication in single precision                          F
 GLOBAL| FFTs using library dependent lengths                                  F
 GLOBAL| Global print level                                               MEDIUM
 GLOBAL| Total number of message passing processes                             1
 GLOBAL| Number of threads for this process                                    1
 GLOBAL| This output is from process                                           0
 GLOBAL| CPU model name : UNKNOWN

 MEMORY| system memory details [Kb]
 MEMORY|                        rank 0           min           max       average
 MEMORY| MemTotal                    0             0             0             0
 MEMORY| MemFree                     0             0             0             0
 MEMORY| Buffers                     0             0             0             0
 MEMORY| Cached                      0             0             0             0
 MEMORY| Slab                        0             0             0             0
 MEMORY| SReclaimable                0             0             0             0
 MEMORY| MemLikelyFree               0             0             0             0


 *** Fundamental physical constants (SI units) ***

 *** Literature: B. J. Mohr and B. N. Taylor,
 ***             CODATA recommended values of the fundamental physical
 ***             constants: 2006, Web Version 5.1
 ***             http://physics.nist.gov/constants

 Speed of light in vacuum [m/s]                             2.99792458000000E+08
 Magnetic constant or permeability of vacuum [N/A**2]       1.25663706143592E-06
 Electric constant or permittivity of vacuum [F/m]          8.85418781762039E-12
 Planck constant (h) [J*s]                                  6.62606896000000E-34
 Planck constant (h-bar) [J*s]                              1.05457162825177E-34
 Elementary charge [C]                                      1.60217648700000E-19
 Electron mass [kg]                                         9.10938215000000E-31
 Electron g factor [ ]                                     -2.00231930436220E+00
 Proton mass [kg]                                           1.67262163700000E-27
 Fine-structure constant                                    7.29735253760000E-03
 Rydberg constant [1/m]                                     1.09737315685270E+07
 Avogadro constant [1/mol]                                  6.02214179000000E+23
 Boltzmann constant [J/K]                                   1.38065040000000E-23
 Atomic mass unit [kg]                                      1.66053878200000E-27
 Bohr radius [m]                                            5.29177208590000E-11

 *** Conversion factors ***

 [u] -> [a.u.]                                              1.82288848426455E+03
 [Angstrom] -> [Bohr] = [a.u.]                              1.88972613288564E+00
 [a.u.] = [Bohr] -> [Angstrom]                              5.29177208590000E-01
 [a.u.] -> [s]                                              2.41888432650478E-17
 [a.u.] -> [fs]                                             2.41888432650478E-02
 [a.u.] -> [J]                                              4.35974393937059E-18
 [a.u.] -> [N]                                              8.23872205491840E-08
 [a.u.] -> [K]                                              3.15774647902944E+05
 [a.u.] -> [kJ/mol]                                         2.62549961709828E+03
 [a.u.] -> [kcal/mol]                                       6.27509468713739E+02
 [a.u.] -> [Pa]                                             2.94210107994716E+13
 [a.u.] -> [bar]                                            2.94210107994716E+08
 [a.u.] -> [atm]                                            2.90362800883016E+08
 [a.u.] -> [eV]                                             2.72113838565563E+01
 [a.u.] -> [Hz]                                             6.57968392072181E+15
 [a.u.] -> [1/cm] (wave numbers)                            2.19474631370540E+05
 [a.u./Bohr**2] -> [1/cm]                                   5.14048714338585E+03
 

 CELL_TOP| Volume [angstrom^3]:                                         1375.527
 CELL_TOP| Vector a [angstrom     6.999     0.000     0.000    |a| =       6.999
 CELL_TOP| Vector b [angstrom    -2.334    15.064     0.000    |b| =      15.244
 CELL_TOP| Vector c [angstrom    -2.333    -7.532    13.046    |c| =      15.244
 CELL_TOP| Angle (b,c), alpha [degree]:                                  117.699
 CELL_TOP| Angle (a,c), beta  [degree]:                                   98.805
 CELL_TOP| Angle (a,b), gamma [degree]:                                   98.807
 CELL_TOP| Numerically orthorhombic:                                          NO

 GENERATE|  Preliminary Number of Bonds generated:                             0
 GENERATE|  Achieved consistency in connectivity generation.

 CELL| Volume [angstrom^3]:                                             1375.527
 CELL| Vector a [angstrom]:       6.999     0.000     0.000    |a| =       6.999
 CELL| Vector b [angstrom]:      -2.334    15.064     0.000    |b| =      15.244
 CELL| Vector c [angstrom]:      -2.333    -7.532    13.046    |c| =      15.244
 CELL| Angle (b,c), alpha [degree]:                                      117.699
 CELL| Angle (a,c), beta  [degree]:                                       98.805
 CELL| Angle (a,b), gamma [degree]:                                       98.807
 CELL| Numerically orthorhombic:                                              NO

 CELL_REF| Volume [angstrom^3]:                                         1375.527
 CELL_REF| Vector a [angstrom     6.999     0.000     0.000    |a| =       6.999
 CELL_REF| Vector b [angstrom    -2.334    15.064     0.000    |b| =      15.244
 CELL_REF| Vector c [angstrom    -2.333    -7.532    13.046    |c| =      15.244
 CELL_REF| Angle (b,c), alpha [degree]:                                  117.699
 CELL_REF| Angle (a,c), beta  [degree]:                                   98.805
 CELL_REF| Angle (a,b), gamma [degree]:                                   98.807
 CELL_REF| Numerically orthorhombic:                                          NO

 *******************************************************************************
 *******************************************************************************
 **                                                                           **
 **     #####                         ##              ##                      **
 **    ##   ##            ##          ##              ##                      **
 **   ##     ##                       ##            ######                    **
 **   ##     ##  ##   ##  ##   #####  ##  ##   ####   ##    #####    #####    **
 **   ##     ##  ##   ##  ##  ##      ## ##   ##      ##   ##   ##  ##   ##   **
 **   ##  ## ##  ##   ##  ##  ##      ####     ###    ##   ######   ######    **
 **    ##  ###   ##   ##  ##  ##      ## ##      ##   ##   ##       ##        **
 **     #######   #####   ##   #####  ##  ##  ####    ##    #####   ##        **
 **           ##                                                    ##        **
 **                                                                           **
 **                                                ... make the atoms dance   **
 **                                                                           **
 **            Copyright (C) by CP2K developers group (2000 - 2018)           **
 **                                                                           **
 *******************************************************************************

 DFT| Spin restricted Kohn-Sham (RKS) calculation                            RKS
 DFT| Multiplicity                                                             1
 DFT| Number of spin states                                                    1
 DFT| Charge                                                                   0
 DFT| Self-interaction correction (SIC)                                       NO
 DFT| Cutoffs: density                                              1.000000E-10
 DFT|          gradient                                             1.000000E-10
 DFT|          tau                                                  1.000000E-10
 DFT|          cutoff_smoothing_range                               0.000000E+00
 DFT| XC density smoothing                                                  NONE
 DFT| XC derivatives                                                          PW
 FUNCTIONAL| ROUTINE=NEW
 FUNCTIONAL| PBE:
 FUNCTIONAL| J.P.Perdew, K.Burke, M.Ernzerhof, Phys. Rev. Letter, vol. 77, n 18,
 FUNCTIONAL|  pp. 3865-3868, (1996){spin unpolarized}                           
 vdW POTENTIAL|                                                   Pair Potential
 vdW POTENTIAL|          DFT-D3 (Version 3.1)
 vdW POTENTIAL|          Potential Form: S. Grimme et al, JCP 132: 154104 (2010)
 vdW POTENTIAL|          BJ Damping: S. Grimme et al, JCC 32: 1456 (2011)
 vdW POTENTIAL|          Cutoff Radius [Bohr]:                             20.00
 vdW POTENTIAL|          s6 Scaling Factor:                               1.0000
 vdW POTENTIAL|          a1 Damping Factor:                               0.4289
 vdW POTENTIAL|          s8 Scaling Factor:                               0.7875
 vdW POTENTIAL|          a2 Damping Factor:                               4.4407
 vdW POTENTIAL|          Cutoff for CN calculation:                   0.1000E-05

 QS| Method:                                                                 GPW
 QS| Density plane wave grid type                        NON-SPHERICAL FULLSPACE
 QS| Number of grid levels:                                                    4
 QS| Density cutoff [a.u.]:                                                150.0
 QS| Multi grid cutoff [a.u.]: 1) grid level                               150.0
 QS|                           2) grid level                                50.0
 QS|                           3) grid level                                16.7
 QS|                           4) grid level                                 5.6
 QS| Grid level progression factor:                                          3.0
 QS| Relative density cutoff [a.u.]:                                        15.0
 QS| Consistent realspace mapping and integration 
 QS| Interaction thresholds: eps_pgf_orb:                                1.0E-05
 QS|                         eps_filter_matrix:                          0.0E+00
 QS|                         eps_core_charge:                            1.0E-12
 QS|                         eps_rho_gspace:                             1.0E-10
 QS|                         eps_rho_rspace:                             1.0E-10
 QS|                         eps_gvg_rspace:                             1.0E-05
 QS|                         eps_ppl:                                    1.0E-02
 QS|                         eps_ppnl:                                   1.0E-07


 ATOMIC KIND INFORMATION

  1. Atomic kind: C                                     Number of atoms:      25

     Orbital Basis Set                                     DZVP-MOLOPT-SR-GTH-q4

       Number of orbital shell sets:                                           1
       Number of orbital shells:                                               5
       Number of primitive Cartesian functions:                                5
       Number of Cartesian basis functions:                                   14
       Number of spherical basis functions:                                   13
       Norm type:                                                              2

       Normalised Cartesian orbitals:

                        Set   Shell   Orbital            Exponent    Coefficient

                          1       1    2s                5.605331       0.322515
                                                         2.113016       0.213043
                                                         0.769911      -0.209686
                                                         0.348157      -0.219794
                                                         0.128212      -0.022789

                          1       2    3s                5.605331       0.552234
                                                         2.113016       0.082072
                                                         0.769911       0.007843
                                                         0.348157       0.136893
                                                         0.128212       0.074283

                          1       3    3px               5.605331      -0.703879
                                                         2.113016      -0.642521
                                                         0.769911      -0.374851
                                                         0.348157      -0.139743
                                                         0.128212      -0.027849
                          1       3    3py               5.605331      -0.703879
                                                         2.113016      -0.642521
                                                         0.769911      -0.374851
                                                         0.348157      -0.139743
                                                         0.128212      -0.027849
                          1       3    3pz               5.605331      -0.703879
                                                         2.113016      -0.642521
                                                         0.769911      -0.374851
                                                         0.348157      -0.139743
                                                         0.128212      -0.027849

                          1       4    4px               5.605331      -0.480376
                                                         2.113016      -0.552894
                                                         0.769911      -0.316145
                                                         0.348157       0.210505
                                                         0.128212       0.076095
                          1       4    4py               5.605331      -0.480376
                                                         2.113016      -0.552894
                                                         0.769911      -0.316145
                                                         0.348157       0.210505
                                                         0.128212       0.076095
                          1       4    4pz               5.605331      -0.480376
                                                         2.113016      -0.552894
                                                         0.769911      -0.316145
                                                         0.348157       0.210505
                                                         0.128212       0.076095

                          1       5    4dx2              5.605331       0.640026
                                                         2.113016       0.274300
                                                         0.769911       0.446711
                                                         0.348157       0.028674
                                                         0.128212       0.029790
                          1       5    4dxy              5.605331       1.108557
                                                         2.113016       0.475102
                                                         0.769911       0.773726
                                                         0.348157       0.049666
                                                         0.128212       0.051599
                          1       5    4dxz              5.605331       1.108557
                                                         2.113016       0.475102
                                                         0.769911       0.773726
                                                         0.348157       0.049666
                                                         0.128212       0.051599
                          1       5    4dy2              5.605331       0.640026
                                                         2.113016       0.274300
                                                         0.769911       0.446711
                                                         0.348157       0.028674
                                                         0.128212       0.029790
                          1       5    4dyz              5.605331       1.108557
                                                         2.113016       0.475102
                                                         0.769911       0.773726
                                                         0.348157       0.049666
                                                         0.128212       0.051599
                          1       5    4dz2              5.605331       0.640026
                                                         2.113016       0.274300
                                                         0.769911       0.446711
                                                         0.348157       0.028674
                                                         0.128212       0.029790

     GTH Potential information for                                    GTH-PBE-q4

       Description:                       Goedecker-Teter-Hutter pseudopotential
                                           Goedecker et al., PRB 54, 1703 (1996)
                                          Hartwigsen et al., PRB 58, 3641 (1998)
                                                      Krack, TCA 114, 145 (2005)

       Gaussian exponent of the core charge distribution:               4.364419
       Electronic configuration (s p d ...):                               2   2

       Parameters of the local part of the GTH pseudopotential:

                          rloc        C1          C2          C3          C4
                        0.338471   -8.803674    1.339211

       Parameters of the non-local part of the GTH pseudopotential:

                   l      r(l)      h(i,j,l)

                   0    0.302576    9.622487
                   1    0.291507

  2. Atomic kind: H                                     Number of atoms:       6

     Orbital Basis Set                                     DZVP-MOLOPT-SR-GTH-q1

       Number of orbital shell sets:                                           1
       Number of orbital shells:                                               3
       Number of primitive Cartesian functions:                                5
       Number of Cartesian basis functions:                                    5
       Number of spherical basis functions:                                    5
       Norm type:                                                              2

       Normalised Cartesian orbitals:

                        Set   Shell   Orbital            Exponent    Coefficient

                          1       1    2s               10.068468      -0.133023
                                                         2.680223      -0.177618
                                                         0.791502      -0.258419
                                                         0.239116      -0.107525
                                                         0.082193      -0.014019

                          1       2    3s               10.068468       0.344673
                                                         2.680223       1.819821
                                                         0.791502      -0.999069
                                                         0.239116       0.017430
                                                         0.082193       0.082660

                          1       3    3px              10.068468       0.155326
                                                         2.680223       0.367157
                                                         0.791502       0.311480
                                                         0.239116       0.080105
                                                         0.082193       0.033440
                          1       3    3py              10.068468       0.155326
                                                         2.680223       0.367157
                                                         0.791502       0.311480
                                                         0.239116       0.080105
                                                         0.082193       0.033440
                          1       3    3pz              10.068468       0.155326
                                                         2.680223       0.367157
                                                         0.791502       0.311480
                                                         0.239116       0.080105
                                                         0.082193       0.033440

     GTH Potential information for                                    GTH-PBE-q1

       Description:                       Goedecker-Teter-Hutter pseudopotential
                                           Goedecker et al., PRB 54, 1703 (1996)
                                          Hartwigsen et al., PRB 58, 3641 (1998)
                                                      Krack, TCA 114, 145 (2005)

       Gaussian exponent of the core charge distribution:              12.500000
       Electronic configuration (s p d ...):                                   1

       Parameters of the local part of the GTH pseudopotential:

                          rloc        C1          C2          C3          C4
                        0.200000   -4.178900    0.724463

  3. Atomic kind: O                                     Number of atoms:      20

     Orbital Basis Set                                     DZVP-MOLOPT-SR-GTH-q6

       Number of orbital shell sets:                                           1
       Number of orbital shells:                                               5
       Number of primitive Cartesian functions:                                5
       Number of Cartesian basis functions:                                   14
       Number of spherical basis functions:                                   13
       Norm type:                                                              2

       Normalised Cartesian orbitals:

                        Set   Shell   Orbital            Exponent    Coefficient

                          1       1    2s               10.389228       0.396646
                                                         3.849621       0.208811
                                                         1.388401      -0.301641
                                                         0.496955      -0.274061
                                                         0.162492      -0.033677

                          1       2    3s               10.389228       0.303673
                                                         3.849621       0.240943
                                                         1.388401      -0.313066
                                                         0.496955      -0.043055
                                                         0.162492       0.213991

                          1       3    3px              10.389228      -1.530415
                                                         3.849621      -1.371928
                                                         1.388401      -0.761951
                                                         0.496955      -0.253695
                                                         0.162492      -0.035541
                          1       3    3py              10.389228      -1.530415
                                                         3.849621      -1.371928
                                                         1.388401      -0.761951
                                                         0.496955      -0.253695
                                                         0.162492      -0.035541
                          1       3    3pz              10.389228      -1.530415
                                                         3.849621      -1.371928
                                                         1.388401      -0.761951
                                                         0.496955      -0.253695
                                                         0.162492      -0.035541

                          1       4    4px              10.389228      -0.565392
                                                         3.849621      -0.038231
                                                         1.388401      -0.382373
                                                         0.496955       0.179070
                                                         0.162492       0.122714
                          1       4    4py              10.389228      -0.565392
                                                         3.849621      -0.038231
                                                         1.388401      -0.382373
                                                         0.496955       0.179070
                                                         0.162492       0.122714
                          1       4    4pz              10.389228      -0.565392
                                                         3.849621      -0.038231
                                                         1.388401      -0.382373
                                                         0.496955       0.179070
                                                         0.162492       0.122714

                          1       5    4dx2             10.389228       1.867377
                                                         3.849621       0.670994
                                                         1.388401       1.353441
                                                         0.496955       0.273538
                                                         0.162492       0.006620
                          1       5    4dxy             10.389228       3.234392
                                                         3.849621       1.162195
                                                         1.388401       2.344229
                                                         0.496955       0.473781
                                                         0.162492       0.011466
                          1       5    4dxz             10.389228       3.234392
                                                         3.849621       1.162195
                                                         1.388401       2.344229
                                                         0.496955       0.473781
                                                         0.162492       0.011466
                          1       5    4dy2             10.389228       1.867377
                                                         3.849621       0.670994
                                                         1.388401       1.353441
                                                         0.496955       0.273538
                                                         0.162492       0.006620
                          1       5    4dyz             10.389228       3.234392
                                                         3.849621       1.162195
                                                         1.388401       2.344229
                                                         0.496955       0.473781
                                                         0.162492       0.011466
                          1       5    4dz2             10.389228       1.867377
                                                         3.849621       0.670994
                                                         1.388401       1.353441
                                                         0.496955       0.273538
                                                         0.162492       0.006620

     GTH Potential information for                                    GTH-PBE-q6

       Description:                       Goedecker-Teter-Hutter pseudopotential
                                           Goedecker et al., PRB 54, 1703 (1996)
                                          Hartwigsen et al., PRB 58, 3641 (1998)
                                                      Krack, TCA 114, 145 (2005)

       Gaussian exponent of the core charge distribution:               8.360253
       Electronic configuration (s p d ...):                               2   4

       Parameters of the local part of the GTH pseudopotential:

                          rloc        C1          C2          C3          C4
                        0.244554  -16.667215    2.487311

       Parameters of the non-local part of the GTH pseudopotential:

                   l      r(l)      h(i,j,l)

                   0    0.220956   18.337458
                   1    0.211332

  4. Atomic kind: Zn                                    Number of atoms:       6

     Orbital Basis Set                                    DZVP-MOLOPT-SR-GTH-q12

       Number of orbital shell sets:                                           1
       Number of orbital shells:                                               7
       Number of primitive Cartesian functions:                                6
       Number of Cartesian basis functions:                                   30
       Number of spherical basis functions:                                   25
       Norm type:                                                              2

       Normalised Cartesian orbitals:

                        Set   Shell   Orbital            Exponent    Coefficient

                          1       1    2s                6.400813       0.070678
                                                         3.167793      -0.182901
                                                         1.341704       0.275787
                                                         0.545418       0.070077
                                                         0.222222      -0.163015
                                                         0.079830      -0.058340

                          1       2    3s                6.400813       0.159300
                                                         3.167793      -0.240359
                                                         1.341704      -0.028572
                                                         0.545418      -0.590243
                                                         0.222222       0.705234
                                                         0.079830      -0.232595

                          1       3    3px               6.400813       0.044197
                                                         3.167793      -0.065115
                                                         1.341704       0.233173
                                                         0.545418      -0.041743
                                                         0.222222      -0.119659
                                                         0.079830      -0.031199
                          1       3    3py               6.400813       0.044197
                                                         3.167793      -0.065115
                                                         1.341704       0.233173
                                                         0.545418      -0.041743
                                                         0.222222      -0.119659
                                                         0.079830      -0.031199
                          1       3    3pz               6.400813       0.044197
                                                         3.167793      -0.065115
                                                         1.341704       0.233173
                                                         0.545418      -0.041743
                                                         0.222222      -0.119659
                                                         0.079830      -0.031199

                          1       4    4px               6.400813       0.240176
                                                         3.167793      -0.408028
                                                         1.341704      -0.147214
                                                         0.545418      -0.102288
                                                         0.222222       0.357755
                                                         0.079830      -0.080257
                          1       4    4py               6.400813       0.240176
                                                         3.167793      -0.408028
                                                         1.341704      -0.147214
                                                         0.545418      -0.102288
                                                         0.222222       0.357755
                                                         0.079830      -0.080257
                          1       4    4pz               6.400813       0.240176
                                                         3.167793      -0.408028
                                                         1.341704      -0.147214
                                                         0.545418      -0.102288
                                                         0.222222       0.357755
                                                         0.079830      -0.080257

                          1       5    4dx2              6.400813      12.052935
                                                         3.167793       4.421864
                                                         1.341704       0.893324
                                                         0.545418       0.127232
                                                         0.222222       0.011466
                                                         0.079830       0.000178
                          1       5    4dxy              6.400813      20.876296
                                                         3.167793       7.658893
                                                         1.341704       1.547283
                                                         0.545418       0.220373
                                                         0.222222       0.019859
                                                         0.079830       0.000308
                          1       5    4dxz              6.400813      20.876296
                                                         3.167793       7.658893
                                                         1.341704       1.547283
                                                         0.545418       0.220373
                                                         0.222222       0.019859
                                                         0.079830       0.000308
                          1       5    4dy2              6.400813      12.052935
                                                         3.167793       4.421864
                                                         1.341704       0.893324
                                                         0.545418       0.127232
                                                         0.222222       0.011466
                                                         0.079830       0.000178
                          1       5    4dyz              6.400813      20.876296
                                                         3.167793       7.658893
                                                         1.341704       1.547283
                                                         0.545418       0.220373
                                                         0.222222       0.019859
                                                         0.079830       0.000308
                          1       5    4dz2              6.400813      12.052935
                                                         3.167793       4.421864
                                                         1.341704       0.893324
                                                         0.545418       0.127232
                                                         0.222222       0.011466
                                                         0.079830       0.000178

                          1       6    5dx2              6.400813      -3.077244
                                                         3.167793      -1.397438
                                                         1.341704      -0.501565
                                                         0.545418       0.120936
                                                         0.222222       0.032489
                                                         0.079830       0.013923
                          1       6    5dxy              6.400813      -5.329943
                                                         3.167793      -2.420434
                                                         1.341704      -0.868735
                                                         0.545418       0.209468
                                                         0.222222       0.056272
                                                         0.079830       0.024116
                          1       6    5dxz              6.400813      -5.329943
                                                         3.167793      -2.420434
                                                         1.341704      -0.868735
                                                         0.545418       0.209468
                                                         0.222222       0.056272
                                                         0.079830       0.024116
                          1       6    5dy2              6.400813      -3.077244
                                                         3.167793      -1.397438
                                                         1.341704      -0.501565
                                                         0.545418       0.120936
                                                         0.222222       0.032489
                                                         0.079830       0.013923
                          1       6    5dyz              6.400813      -5.329943
                                                         3.167793      -2.420434
                                                         1.341704      -0.868735
                                                         0.545418       0.209468
                                                         0.222222       0.056272
                                                         0.079830       0.024116
                          1       6    5dz2              6.400813      -3.077244
                                                         3.167793      -1.397438
                                                         1.341704      -0.501565
                                                         0.545418       0.120936
                                                         0.222222       0.032489
                                                         0.079830       0.013923

                          1       7    5fx3              6.400813      -0.041001
                                                         3.167793       0.016340
                                                         1.341704       0.068339
                                                         0.545418       0.147998
                                                         0.222222       0.008656
                                                         0.079830       0.003475
                          1       7    5fx2y             6.400813      -0.091680
                                                         3.167793       0.036538
                                                         1.341704       0.152810
                                                         0.545418       0.330933
                                                         0.222222       0.019354
                                                         0.079830       0.007771
                          1       7    5fx2z             6.400813      -0.091680
                                                         3.167793       0.036538
                                                         1.341704       0.152810
                                                         0.545418       0.330933
                                                         0.222222       0.019354
                                                         0.079830       0.007771
                          1       7    5fxy2             6.400813      -0.091680
                                                         3.167793       0.036538
                                                         1.341704       0.152810
                                                         0.545418       0.330933
                                                         0.222222       0.019354
                                                         0.079830       0.007771
                          1       7    5fxyz             6.400813      -0.158795
                                                         3.167793       0.063286
                                                         1.341704       0.264674
                                                         0.545418       0.573193
                                                         0.222222       0.033523
                                                         0.079830       0.013460
                          1       7    5fxz2             6.400813      -0.091680
                                                         3.167793       0.036538
                                                         1.341704       0.152810
                                                         0.545418       0.330933
                                                         0.222222       0.019354
                                                         0.079830       0.007771
                          1       7    5fy3              6.400813      -0.041001
                                                         3.167793       0.016340
                                                         1.341704       0.068339
                                                         0.545418       0.147998
                                                         0.222222       0.008656
                                                         0.079830       0.003475
                          1       7    5fy2z             6.400813      -0.091680
                                                         3.167793       0.036538
                                                         1.341704       0.152810
                                                         0.545418       0.330933
                                                         0.222222       0.019354
                                                         0.079830       0.007771
                          1       7    5fyz2             6.400813      -0.091680
                                                         3.167793       0.036538
                                                         1.341704       0.152810
                                                         0.545418       0.330933
                                                         0.222222       0.019354
                                                         0.079830       0.007771
                          1       7    5fz3              6.400813      -0.041001
                                                         3.167793       0.016340
                                                         1.341704       0.068339
                                                         0.545418       0.147998
                                                         0.222222       0.008656
                                                         0.079830       0.003475

     GTH Potential information for                                   GTH-PBE-q12

       Description:                       Goedecker-Teter-Hutter pseudopotential
                                           Goedecker et al., PRB 54, 1703 (1996)
                                          Hartwigsen et al., PRB 58, 3641 (1998)
                                                      Krack, TCA 114, 145 (2005)

       Gaussian exponent of the core charge distribution:               1.922338
       Electronic configuration (s p d ...):                           2   0  10

       Parameters of the local part of the GTH pseudopotential:

                          rloc        C1          C2          C3          C4
                        0.510000

       Parameters of the non-local part of the GTH pseudopotential:

                   l      r(l)      h(i,j,l)

                   0    0.400316   11.530041   -8.791898    3.145086
                                   -8.791898   16.465775   -8.120578
                                    3.145086   -8.120578    6.445509
                   1    0.543182    2.597195   -0.594263
                                   -0.594263    0.703141
                   2    0.250959  -14.466958


 MOLECULE KIND INFORMATION


 All atoms are their own molecule, skipping detailed information


 TOTAL NUMBERS AND MAXIMUM NUMBERS

  Total number of            - Atomic kinds:                                   4
                             - Atoms:                                         57
                             - Shell sets:                                    57
                             - Shells:                                       285
                             - Primitive Cartesian functions:                291
                             - Cartesian basis functions:                    840
                             - Spherical basis functions:                    765

  Maximum angular momentum of- Orbital basis functions:                        3
                             - Local part of the GTH pseudopotential:          2
                             - Non-local part of the GTH pseudopotential:      4


 MODULE QUICKSTEP:  ATOMIC COORDINATES IN angstrom

  Atom  Kind  Element       X           Y           Z          Z(eff)       Mass

       1     1 C    6    0.646324   -2.012143    7.954853      4.00      12.0107
       2     1 C    6   -0.317199   -2.880077    7.219172      4.00      12.0107
       3     1 C    6    5.319234   -2.515377    7.000516      4.00      12.0107
       4     1 C    6    4.512022   -3.420519    6.302930      4.00      12.0107
       5     1 C    6    2.978991    1.649870    7.326151      4.00      12.0107
       6     1 C    6    2.015509    2.721076    6.942068      4.00      12.0107
       7     1 C    6    0.652869    2.727937    7.367508      4.00      12.0107
       8     1 C    6   -0.154461    3.784682    6.932283      4.00      12.0107
       9     1 C    6   -1.687101    0.363295   10.812123      4.00      12.0107
      10     1 C    6   -2.650664    0.160324   11.931627      4.00      12.0107
      11     1 C    6    2.985722   -0.211463   11.724973      4.00      12.0107
      12     1 C    6    2.178442   -0.362915   12.857784      4.00      12.0107
      13     1 C    6    1.685603    9.545114    5.091581      4.00      12.0107
      14     1 C    6    2.649056   10.413047    5.827262      4.00      12.0107
      15     1 C    6   -2.987377   10.048347    6.045918      4.00      12.0107
      16     1 C    6   -2.180142   10.953338    6.743503      4.00      12.0107
      17     1 C    6   -0.647134    5.883100    5.720543      4.00      12.0107
      18     1 C    6    0.316371    4.811743    6.104626      4.00      12.0107
      19     1 C    6    1.679035    4.804957    5.679316      4.00      12.0107
      20     1 C    6    2.486295    3.748213    6.114541      4.00      12.0107
      21     1 C    6    4.018981    7.169298    2.234701      4.00      12.0107
      22     1 C    6    4.982498    7.372345    1.115067      4.00      12.0107
      23     1 C    6   -0.653888    7.744132    1.321460      4.00      12.0107
      24     1 C    6    0.153438    7.895509    0.188780      4.00      12.0107
      25     2 H    1    3.470307   -3.157878    6.123282      1.00       1.0079
      26     2 H    1   -1.196215    3.808865    7.249700      1.00       1.0079
      27     2 H    1    1.136690   -0.649814   12.720145      1.00       1.0079
      28     2 H    1   -1.138427   10.690698    6.923151      1.00       1.0079
      29     2 H    1    3.528095    3.723955    5.796994      1.00       1.0079
      30     2 H    1    1.195144    8.182483    0.326549      1.00       1.0079
      31     3 O    8    0.191054   -0.914259    8.443045      6.00      15.9994
      32     3 O    8    1.864634   -2.370141    8.072922      6.00      15.9994
      33     3 O    8    4.757113   -1.347822    7.418650      6.00      15.9994
      34     3 O    8    2.524004    0.678016    8.032869      6.00      15.9994
      35     3 O    8    4.197490    1.726766    6.957071      6.00      15.9994
      36     3 O    8    0.090859    1.782071    8.169595      6.00      15.9994
      37     3 O    8   -2.142095    0.236963    9.616952      6.00      15.9994
      38     3 O    8   -0.468700    0.644547   11.063134      6.00      15.9994
      39     3 O    8    2.423837   -0.433227   10.504622      6.00      15.9994
      40     3 O    8    2.140803    8.447003    4.603518      6.00      15.9994
      41     3 O    8    0.467223    9.902886    4.973642      6.00      15.9994
      42     3 O    8   -2.425256    8.880567    5.627914      6.00      15.9994
      43     3 O    8   -0.192101    6.854652    5.013825      6.00      15.9994
      44     3 O    8   -1.865633    5.806204    6.089623      6.00      15.9994
      45     3 O    8    2.240997    5.750899    4.877099      6.00      15.9994
      46     3 O    8    4.473952    7.295555    3.429482      6.00      15.9994
      47     3 O    8    2.800534    6.888122    1.983560      6.00      15.9994
      48     3 O    8   -0.091980    7.965746    2.541811      6.00      15.9994
      49     4 Zn  30   -1.389369    0.486697    7.744546     12.00      65.3800
      50     4 Zn  30    0.943538    0.582459    9.595425     12.00      65.3800
      51     4 Zn  30    3.276675   -1.068210    8.753025     12.00      65.3800
      52     4 Zn  30    3.721249    7.046123    5.302148     12.00      65.3800
      53     4 Zn  30    1.388366    6.950209    3.451269     12.00      65.3800
      54     4 Zn  30   -0.944818    8.600954    4.293538     12.00      65.3800
      55     1 C    6    1.018619    3.215795    2.984994      4.00      12.0107
      56     3 O    8    0.960557    4.394036    2.796475      6.00      15.9994
      57     3 O    8    1.075865    2.035596    3.173513      6.00      15.9994




 SCF PARAMETERS         Density guess:                                    ATOMIC
                        --------------------------------------------------------
                        max_scf:                                              50
                        max_scf_history:                                       0
                        max_diis:                                              4
                        --------------------------------------------------------
                        eps_scf:                                        1.00E-04
                        eps_scf_history:                                0.00E+00
                        eps_diis:                                       1.00E-01
                        eps_eigval:                                     1.00E-05
                        --------------------------------------------------------
                        level_shift [a.u.]:                                 0.00
                        --------------------------------------------------------
                        Outer loop SCF in use 
                        No variables optimised in outer loop
                        eps_scf                                         1.00E-04
                        max_scf                                                5
                        No outer loop optimization
                        step_size                                       5.00E-01

 PW_GRID| Information for grid number                                          1
 PW_GRID| Cutoff [a.u.]                                                    150.0
 PW_GRID| spherical cutoff:                                                   NO
 PW_GRID|   Bounds   1            -37      37                Points:          75
 PW_GRID|   Bounds   2            -80      79                Points:         160
 PW_GRID|   Bounds   3            -80      79                Points:         160
 PW_GRID| Volume element (a.u.^3)  0.4835E-02     Volume (a.u.^3)      9282.5169
 PW_GRID| Grid span                                                    FULLSPACE

 PW_GRID| Information for grid number                                          2
 PW_GRID| Cutoff [a.u.]                                                     50.0
 PW_GRID| spherical cutoff:                                                   NO
 PW_GRID|   Bounds   1            -22      22                Points:          45
 PW_GRID|   Bounds   2            -48      47                Points:          96
 PW_GRID|   Bounds   3            -48      47                Points:          96
 PW_GRID| Volume element (a.u.^3)  0.2238E-01     Volume (a.u.^3)      9282.5169
 PW_GRID| Grid span                                                    FULLSPACE

 PW_GRID| Information for grid number                                          3
 PW_GRID| Cutoff [a.u.]                                                     16.7
 PW_GRID| spherical cutoff:                                                   NO
 PW_GRID|   Bounds   1            -12      12                Points:          25
 PW_GRID|   Bounds   2            -27      26                Points:          54
 PW_GRID|   Bounds   3            -27      26                Points:          54
 PW_GRID| Volume element (a.u.^3)  0.1273         Volume (a.u.^3)      9282.5169
 PW_GRID| Grid span                                                    FULLSPACE

 PW_GRID| Information for grid number                                          4
 PW_GRID| Cutoff [a.u.]                                                      5.6
 PW_GRID| spherical cutoff:                                                   NO
 PW_GRID|   Bounds   1             -7       7                Points:          15
 PW_GRID|   Bounds   2            -16      15                Points:          32
 PW_GRID|   Bounds   3            -16      15                Points:          32
 PW_GRID| Volume element (a.u.^3)  0.6043         Volume (a.u.^3)      9282.5169
 PW_GRID| Grid span                                                    FULLSPACE

 POISSON| Solver                                                        PERIODIC
 POISSON| Periodicity                                                        XYZ

 RS_GRID| Information for grid number                                          1
 RS_GRID|   Bounds   1            -37      37                Points:          75
 RS_GRID|   Bounds   2            -80      79                Points:         160
 RS_GRID|   Bounds   3            -80      79                Points:         160

 RS_GRID| Information for grid number                                          2
 RS_GRID|   Bounds   1            -22      22                Points:          45
 RS_GRID|   Bounds   2            -48      47                Points:          96
 RS_GRID|   Bounds   3            -48      47                Points:          96

 RS_GRID| Information for grid number                                          3
 RS_GRID|   Bounds   1            -12      12                Points:          25
 RS_GRID|   Bounds   2            -27      26                Points:          54
 RS_GRID|   Bounds   3            -27      26                Points:          54

 RS_GRID| Information for grid number                                          4
 RS_GRID|   Bounds   1             -7       7                Points:          15
 RS_GRID|   Bounds   2            -16      15                Points:          32
 RS_GRID|   Bounds   3            -16      15                Points:          32

 BFGS| Use rational function optimization for step estimation:                NO
 BFGS| Use model Hessian for initial guess:                                  YES
 BFGS| Restart Hessian:                                                       NO
 BFGS| Trust radius:                                                       0.472

 *******************************************************************************
 ***                     STARTING GEOMETRY OPTIMIZATION                      ***
 ***                                   BFGS                                  ***
 *******************************************************************************

 Number of electrons:                                                        298
 Number of occupied orbitals:                                                149
 Number of molecular orbitals:                                               149

 Number of orbital functions:                                                765
 Number of independent orbital functions:                                    765

 Extrapolation method: initial_guess

 Atomic guess: The first density matrix is obtained in terms of atomic orbitals
               and electronic configurations assigned to each atomic kind

 Guess for atomic kind: C

 Electronic structure
    Total number of core electrons                                          2.00
    Total number of valence electrons                                       4.00
    Total number of electrons                                               6.00
    Multiplicity                                                   not specified
    S   [  2.00] 2.00
    P      2.00


 *******************************************************************************
                  Iteration          Convergence                     Energy [au]
 *******************************************************************************
                          1        0.457038                      -5.151105664215
                          2        0.157450                      -5.235617431356
                          3        0.130137E-02                  -5.246564342251
                          4        0.531061E-03                  -5.246565033610
                          5        0.605965E-04                  -5.246565167704
                          6        0.323545E-04                  -5.246565168968
                          7        0.365472E-07                  -5.246565169473

 Energy components [Hartree]           Total Energy ::           -5.246565169473
                                        Band Energy ::           -1.058732656762
                                     Kinetic Energy ::            3.518928154187
                                   Potential Energy ::           -8.765493323660
                                      Virial (-V/T) ::            2.490955467002
                                        Core Energy ::           -8.429377161979
                                          XC Energy ::           -1.450183339326
                                     Coulomb Energy ::            4.632995331832
                       Total Pseudopotential Energy ::          -11.978048785149
                       Local Pseudopotential Energy ::          -12.816738149676
                    Nonlocal Pseudopotential Energy ::            0.838689364526
                                        Confinement ::            0.297434689834

 Orbital energies  State     L     Occupation   Energy[a.u.]          Energy[eV]

                       1     0          2.000      -0.410911          -11.181458

                       1     1          2.000      -0.118455           -3.223332


 Total Electron Density at R=0:                                         0.001337

 Guess for atomic kind: H

 Electronic structure
    Total number of core electrons                                          0.00
    Total number of valence electrons                                       1.00
    Total number of electrons                                               1.00
    Multiplicity                                                   not specified
    S      1.00


 *******************************************************************************
                  Iteration          Convergence                     Energy [au]
 *******************************************************************************
                          1        0.250972E-02                  -0.375256815885
                          2        0.570752E-04                  -0.375258666164
                          3        0.832405E-09                  -0.375258667122

 Energy components [Hartree]           Total Energy ::           -0.375258667122
                                        Band Energy ::           -0.076317618391
                                     Kinetic Energy ::            0.771356566341
                                   Potential Energy ::           -1.146615233463
                                      Virial (-V/T) ::            1.486491829455
                                        Core Energy ::           -0.456090715790
                                          XC Energy ::           -0.314218627334
                                     Coulomb Energy ::            0.395050676003
                       Total Pseudopotential Energy ::           -1.238482237174
                       Local Pseudopotential Energy ::           -1.238482237174
                    Nonlocal Pseudopotential Energy ::            0.000000000000
                                        Confinement ::            0.110349550431

 Orbital energies  State     L     Occupation   Energy[a.u.]          Energy[eV]

                       1     0          1.000      -0.076318           -2.076708


 Total Electron Density at R=0:                                         0.425022

 Guess for atomic kind: O

 Electronic structure
    Total number of core electrons                                          2.00
    Total number of valence electrons                                       6.00
    Total number of electrons                                               8.00
    Multiplicity                                                   not specified
    S   [  2.00] 2.00
    P      4.00


 *******************************************************************************
                  Iteration          Convergence                     Energy [au]
 *******************************************************************************
                          1         1.67054                     -14.836051221656
                          2         2.12470                     -14.897900780399
                          3        0.100150                     -15.654295189160
                          4        0.189307E-01                 -15.655828842239
                          5        0.464435E-02                 -15.655882433232
                          6        0.259395E-02                 -15.655884790195
                          7        0.516014E-04                 -15.655885857622
                          8        0.157374E-05                 -15.655885858066
                          9        0.783512E-06                 -15.655885858066

 Energy components [Hartree]           Total Energy ::          -15.655885858066
                                        Band Energy ::           -2.983129541149
                                     Kinetic Energy ::           11.754767937471
                                   Potential Energy ::          -27.410653795537
                                      Virial (-V/T) ::            2.331875366774
                                        Core Energy ::          -26.153524299614
                                          XC Energy ::           -3.157392735430
                                     Coulomb Energy ::           13.655031176977
                       Total Pseudopotential Energy ::          -37.943031004163
                       Local Pseudopotential Energy ::          -39.220423834999
                    Nonlocal Pseudopotential Energy ::            1.277392830837
                                        Confinement ::            0.347387670777

 Orbital energies  State     L     Occupation   Energy[a.u.]          Energy[eV]

                       1     0          2.000      -0.861523          -23.443221

                       1     1          4.000      -0.315021           -8.572160


 Total Electron Density at R=0:                                         0.000093

 Guess for atomic kind: Zn

 Electronic structure
    Total number of core electrons                                         18.00
    Total number of valence electrons                                      12.00
    Total number of electrons                                              30.00
    Multiplicity                                                   not specified
    S   [  2.00  2.00  2.00] 2.00
    P   [  6.00  6.00]
    D     10.00


 *******************************************************************************
                  Iteration          Convergence                     Energy [au]
 *******************************************************************************
                          1         1.62924                     -59.451394251983
                          2         9.44946                     -57.380718340026
                          3         1.20534                     -60.073283596570
                          4        0.228441                     -60.149512613300
                          5        0.659017E-01                 -60.153075514012
                          6        0.364244E-01                 -60.153290281981
                          7        0.826658E-01                 -60.152916515694
                          8        0.577629E-03                 -60.153383695723
                          9        0.361798E-03                 -60.153383709870
                         10        0.208007E-03                 -60.153383715985
                         11        0.873205E-04                 -60.153383718472
                         12        0.217219E-05                 -60.153383719003
                         13        0.826429E-08                 -60.153383719004

 Energy components [Hartree]           Total Energy ::          -60.153383719004
                                        Band Energy ::           -3.832693908022
                                     Kinetic Energy ::           84.396829637188
                                   Potential Energy ::         -144.550213356191
                                      Virial (-V/T) ::            1.712744589786
                                        Core Energy ::         -110.535288508001
                                          XC Energy ::           -8.666206286402
                                     Coulomb Energy ::           59.048111075399
                       Total Pseudopotential Energy ::         -195.030087576096
                       Local Pseudopotential Energy ::         -135.966032502182
                    Nonlocal Pseudopotential Energy ::          -59.064055073914
                                        Confinement ::            0.979694309070

 Orbital energies  State     L     Occupation   Energy[a.u.]          Energy[eV]

                       1     0          2.000      -0.191113           -5.200458

                       1     2         10.000      -0.345047           -9.389199


 Total Electron Density at R=0:                                         0.000033
 Re-scaling the density matrix to get the right number of electrons
                  # Electrons              Trace(P)               Scaling factor
                          298               298.011                        1.000


 SCF WAVEFUNCTION OPTIMIZATION

  ----------------------------------- OT ---------------------------------------
  Minimizer      : DIIS                : direct inversion
                                         in the iterative subspace
                                         using   7 DIIS vectors
                                         safer DIIS on
  Preconditioner : FULL_ALL            : diagonalization, state selective
  Precond_solver : DEFAULT
  stepsize       :    0.15000000                  energy_gap     :    0.08000000
  eps_taylor     :   0.10000E-15                  max_taylor     :             4
  ----------------------------------- OT ---------------------------------------

  Step     Update method      Time    Convergence         Total energy    Change
  ------------------------------------------------------------------------------
     1 OT DIIS     0.15E+00    6.3     0.05056229      -808.5749133180 -8.09E+02
     2 OT DIIS     0.15E+00   10.0     0.05514359      -817.7399985527 -9.17E+00
     3 OT DIIS     0.15E+00    9.2     0.04242300      -822.8088181484 -5.07E+00
     4 OT DIIS     0.15E+00    9.2     0.03853280      -825.4016873071 -2.59E+00
     5 OT DIIS     0.15E+00    9.5     0.01543389      -827.9267660975 -2.53E+00
     6 OT DIIS     0.15E+00    9.3     0.01011788      -828.7133911638 -7.87E-01
     7 OT DIIS     0.15E+00    9.3     0.00771967      -829.1180139577 -4.05E-01
     8 OT DIIS     0.15E+00    8.6     0.00613308      -829.3850351145 -2.67E-01
     9 OT DIIS     0.15E+00    8.7     0.00472091      -829.5553470547 -1.70E-01
    10 OT DIIS     0.15E+00    8.5     0.00339224      -829.6434112833 -8.81E-02
    11 OT DIIS     0.15E+00    8.7     0.00252351      -829.7188302622 -7.54E-02
    12 OT DIIS     0.15E+00    8.9     0.00203617      -829.7763491500 -5.75E-02
    13 OT DIIS     0.15E+00    8.5     0.00163377      -829.8296221933 -5.33E-02
    14 OT DIIS     0.15E+00    9.1     0.00150729      -829.8595930467 -3.00E-02
    15 OT DIIS     0.15E+00    9.2     0.00126301      -829.8829462971 -2.34E-02
    16 OT DIIS     0.15E+00    8.9     0.00125285      -829.8933580466 -1.04E-02
    17 OT DIIS     0.15E+00    9.0     0.00100256      -829.9005621295 -7.20E-03
    18 OT DIIS     0.15E+00    9.0     0.00080880      -829.9050932833 -4.53E-03
    19 OT DIIS     0.15E+00   10.4     0.00062651      -829.9080483969 -2.96E-03
    20 OT DIIS     0.15E+00    9.9     0.00037147      -829.9103746476 -2.33E-03
    21 OT DIIS     0.15E+00   10.7     0.00028118      -829.9119647818 -1.59E-03
    22 OT DIIS     0.15E+00   10.5     0.00023013      -829.9129161224 -9.51E-04
    23 OT DIIS     0.15E+00   10.0     0.00016873      -829.9135725906 -6.56E-04
    24 OT DIIS     0.15E+00   10.1     0.00015810      -829.9139721949 -4.00E-04
    25 OT DIIS     0.15E+00   10.0     0.00016150      -829.9142538128 -2.82E-04
    26 OT DIIS     0.15E+00    9.5     0.00013561      -829.9144448745 -1.91E-04
    27 OT DIIS     0.15E+00    9.4     0.00012125      -829.9146020378 -1.57E-04
    28 OT DIIS     0.15E+00    9.4     0.00010041      -829.9147565648 -1.55E-04
    29 OT DIIS     0.15E+00    9.4     0.00008201      -829.9149114281 -1.55E-04

  *** SCF run converged in    29 steps ***


  Electronic density on regular grids:       -297.9999997777        0.0000002223
  Core density on regular grids:              297.9999999817       -0.0000000183
  Total charge density on r-space grids:        0.0000002040
  Total charge density g-space grids:           0.0000002040

  Overlap energy of the core charge distribution:               0.00000724704301
  Self energy of the core charge distribution:              -1650.26394838983515
  Core Hamiltonian energy:                                    498.30494311646311
  Hartree energy:                                             492.41885543977253
  Exchange-correlation energy:                               -170.21356890703842
  Dispersion energy:                                           -0.16119993448030

  Total energy:                                              -829.91491142807536

  outer SCF iter =    1 RMS gradient =   0.82E-04 energy =       -829.9149114281
  outer SCF loop converged in   1 iterations or   29 steps


 ENERGY| Total FORCE_EVAL ( QS ) energy (a.u.):             -829.915036591113335


 --------  Informations at step =     0 ------------
  Optimization Method        =                 BFGS
  Total Energy               =      -829.9150365911
  Used time                  =              292.014
 ---------------------------------------------------

 --------------------------
 OPTIMIZATION STEP:      1
 --------------------------

 Number of electrons:                                                        298
 Number of occupied orbitals:                                                149
 Number of molecular orbitals:                                               149

 Number of orbital functions:                                                765
 Number of independent orbital functions:                                    765

 Parameters for the always stable predictor-corrector (ASPC) method:

  ASPC order: 0

  B(1) =   1.000000

 Extrapolation method: ASPC


 SCF WAVEFUNCTION OPTIMIZATION

  ----------------------------------- OT ---------------------------------------
  Minimizer      : DIIS                : direct inversion
                                         in the iterative subspace
                                         using   7 DIIS vectors
                                         safer DIIS on
  Preconditioner : FULL_ALL            : diagonalization, state selective
  Precond_solver : DEFAULT
  stepsize       :    0.15000000                  energy_gap     :    0.08000000
  eps_taylor     :   0.10000E-15                  max_taylor     :             4
  ----------------------------------- OT ---------------------------------------

  Step     Update method      Time    Convergence         Total energy    Change
  ------------------------------------------------------------------------------
     1 OT DIIS     0.15E+00    6.2     0.00044747      -829.9151523466 -8.30E+02
     2 OT DIIS     0.15E+00    9.6     0.00018979      -829.9174319328 -2.28E-03
     3 OT DIIS     0.15E+00    9.8     0.00019097      -829.9177298841 -2.98E-04
     4 OT DIIS     0.15E+00    9.6     0.00004596      -829.9178593601 -1.29E-04

  *** SCF run converged in     4 steps ***


  Electronic density on regular grids:       -297.9999997770        0.0000002230
  Core density on regular grids:              297.9999999817       -0.0000000183
  Total charge density on r-space grids:        0.0000002046
  Total charge density g-space grids:           0.0000002046

  Overlap energy of the core charge distribution:               0.00000792149367
  Self energy of the core charge distribution:              -1650.26394838983515
  Core Hamiltonian energy:                                    498.39849624042364
  Hartree energy:                                             492.34625411536268
  Exchange-correlation energy:                               -170.23749645263422
  Dispersion energy:                                           -0.16117279487442

  Total energy:                                              -829.91785936006386

  outer SCF iter =    1 RMS gradient =   0.46E-04 energy =       -829.9178593601
  outer SCF loop converged in   1 iterations or    4 steps


 ENERGY| Total FORCE_EVAL ( QS ) energy (a.u.):             -829.917865438958870


 --------  Informations at step =     1 ------------
  Optimization Method        =                 BFGS
  Total Energy               =      -829.9178654390
  Real energy change         =        -0.0028288478
  Predicted change in energy =        -0.0014224965
  Scaling factor             =         0.0000000000
  Step size                  =         0.0604411557
  Trust radius               =         0.4724315332
  Decrease in energy         =                  YES
  Used time                  =               58.208

  Convergence check :
  Max. step size             =         0.0604411557
  Conv. limit for step size  =         0.0030000000
  Convergence in step size   =                   NO
  RMS step size              =         0.0071240711
[...]
      56     O        3          6.265704                             -0.265704
      57     O        3          6.212971                             -0.212971
 # Total charge                            298.000000                 -0.000000

 !-----------------------------------------------------------------------------!
  
  Eigenvalues of the occupied subspace spin            1
 ---------------------------------------------
      -0.95139809     -0.91567957     -0.89024594     -0.88842859
      -0.88564869     -0.88480054     -0.88395796     -0.88281095
      -0.81625830     -0.81441588     -0.81388515     -0.81352777
      -0.81197369     -0.81055502     -0.80123215     -0.80016757
      -0.79945347     -0.79928883     -0.79831537     -0.79704609
      -0.66225520     -0.65918725     -0.65781490     -0.59349884
      -0.59057394     -0.58923230     -0.54513948     -0.54037413
      -0.53859630     -0.50005935     -0.49783898     -0.49672174
      -0.43884022     -0.43366543     -0.43179684     -0.43011838
      -0.42318216     -0.42214599     -0.41879502     -0.39851266
      -0.39739795     -0.39600221     -0.37342208     -0.37269945
      -0.37225019     -0.37173733     -0.36906615     -0.36754627
      -0.35435893     -0.35291287     -0.34761212     -0.34730721
      -0.34622742     -0.34539543     -0.34499936     -0.34452747
      -0.34269075     -0.33264700     -0.32791489     -0.32698511
      -0.32107264     -0.31971686     -0.31658491     -0.30574808
      -0.30515426     -0.30369563     -0.30341206     -0.29817953
      -0.29754820     -0.29665850     -0.29504998     -0.29046807
      -0.28955334     -0.28920967     -0.28805529     -0.28606447
      -0.28558443     -0.28103942     -0.28084006     -0.27965433
      -0.27941888     -0.27776693     -0.27512951     -0.27307073
      -0.27259003     -0.27216576     -0.27105703     -0.26973669
      -0.26940290     -0.26835044     -0.26807254     -0.26691439
      -0.26548344     -0.26492025     -0.26371512     -0.26079652
      -0.25904416     -0.25766818     -0.25541341     -0.25378024
      -0.25305641     -0.24943776     -0.24886170     -0.24008365
      -0.23642460     -0.23175820     -0.23079996     -0.22992010
      -0.22687961     -0.22627777     -0.22433557     -0.21574897
      -0.21508766     -0.21301993     -0.20977139     -0.20837132
      -0.19649005     -0.18657292     -0.18594779     -0.18527716
      -0.18198214     -0.18099778     -0.16912636     -0.16827147
      -0.16217754     -0.16135886     -0.15831471     -0.15712319
      -0.15354709     -0.15303163     -0.15212720     -0.15198071
      -0.15102159     -0.14412820     -0.13899407     -0.13816544
      -0.13565859     -0.12694714     -0.12409156     -0.12260907
      -0.12021991     -0.11796674     -0.11720361     -0.11252216
      -0.10707181     -0.10630130     -0.07558532     -0.07341164
      -0.06806985
 Fermi Energy [eV] :   -1.852275
  
  Lowest Eigenvalues of the unoccupied subspace spin            1
 -----------------------------------------------------
  Reached convergence in          251  iterations 
       0.01236731
  
 HOMO - LUMO gap [eV] :    2.188806

 ENERGY| Total FORCE_EVAL ( QS ) energy (a.u.):             -829.918708359610719


 --------  Informations at step =     5 ------------
  Optimization Method        =                 BFGS
  Total Energy               =      -829.9187083596
  Real energy change         =        -0.0000727649
  Predicted change in energy =        -0.0000947744
  Scaling factor             =         0.0000000000
  Step size                  =         0.0215865149
  Trust radius               =         0.4724315332
  Decrease in energy         =                  YES
  Used time                  =               58.345

  Convergence check :
  Max. step size             =         0.0215865149
  Conv. limit for step size  =         0.0030000000
  Convergence in step size   =                   NO
  RMS step size              =         0.0026174255
  Conv. limit for RMS step   =         0.0015000000
  Convergence in RMS step    =                   NO
  Max. gradient              =         0.0030823924
  Conv. limit for gradients  =         0.0004500000
  Conv. for gradients        =                   NO
  RMS gradient               =         0.0003886735
  Conv. limit for RMS grad.  =         0.0003000000
  Conv. for gradients        =                   NO
 ---------------------------------------------------

 *** MAXIMUM NUMBER OF OPTIMIZATION STEPS REACHED ***
 ***        EXITING GEOMETRY OPTIMIZATION         ***

 -------------------------------------------------------------------------------
 -                                                                             -
 -                                DBCSR STATISTICS                             -
 -                                                                             -
 -------------------------------------------------------------------------------
 COUNTER                                    TOTAL       BLAS       SMM       ACC
 flops     1 x     1 x     1                 2866     100.0%      0.0%      0.0%
 flops     5 x    21 x    21               158760     100.0%      0.0%      0.0%
 flops   149 x     1 x   149               310814     100.0%      0.0%      0.0%
 flops     1 x     1 x   765               748170     100.0%      0.0%      0.0%
 flops    25 x    21 x    21               793800     100.0%      0.0%      0.0%
 flops     5 x     1 x     5               918000     100.0%      0.0%      0.0%
 flops   765 x     1 x     1              1153620     100.0%      0.0%      0.0%
 flops     5 x    32 x    32              1474560     100.0%      0.0%      0.0%
 flops   149 x     1 x   765              1595790     100.0%      0.0%      0.0%
 flops   765 x     1 x   149              1595790     100.0%      0.0%      0.0%
 flops    13 x    21 x    21              3095820     100.0%      0.0%      0.0%
 flops    25 x     1 x     5              4590000     100.0%      0.0%      0.0%
 flops     5 x     1 x    25              4590000     100.0%      0.0%      0.0%
 flops   150 x     1 x   150              5670000     100.0%      0.0%      0.0%
 flops     5 x    21 x     5              6048000     100.0%      0.0%      0.0%
 flops    25 x    32 x    32              7372800     100.0%      0.0%      0.0%
 flops     5 x     5 x   149              9543450     100.0%      0.0%      0.0%
 flops     5 x     1 x    13             17901000     100.0%      0.0%      0.0%
 flops    13 x     1 x     5             17901000     100.0%      0.0%      0.0%
 flops    25 x     1 x    25             22950000     100.0%      0.0%      0.0%
 flops    13 x    32 x    32             28753920     100.0%      0.0%      0.0%
 flops   150 x     1 x   765             28917000     100.0%      0.0%      0.0%
 flops   765 x     1 x   150             28917000     100.0%      0.0%      0.0%
 flops    25 x    21 x     5             30240000     100.0%      0.0%      0.0%
 flops     5 x    21 x    25             30240000     100.0%      0.0%      0.0%
 flops     5 x    32 x     5             36864000     100.0%      0.0%      0.0%
 flops    25 x     5 x   149             40900500     100.0%      0.0%      0.0%
 flops     5 x    25 x   149             40900500     100.0%      0.0%      0.0%
 flops    25 x     1 x    13             89505000     100.0%      0.0%      0.0%
 flops    13 x     1 x    25             89505000     100.0%      0.0%      0.0%
 flops     5 x    21 x    13            117936000     100.0%      0.0%      0.0%
 flops    13 x    21 x     5            117936000     100.0%      0.0%      0.0%
 flops    25 x    21 x    25            151200000     100.0%      0.0%      0.0%
 flops     5 x    13 x   149            159511950     100.0%      0.0%      0.0%
 flops    13 x     5 x   149            159511950     100.0%      0.0%      0.0%
 flops    25 x    32 x     5            184320000     100.0%      0.0%      0.0%
 flops     5 x    32 x    25            184320000     100.0%      0.0%      0.0%
 flops    25 x    25 x   149            238586250     100.0%      0.0%      0.0%
 flops   150 x   150 x   765            240975000     100.0%      0.0%      0.0%
 flops    13 x     1 x    13            349069500     100.0%      0.0%      0.0%
 flops    25 x    21 x    13            589680000     100.0%      0.0%      0.0%
 flops    13 x    21 x    25            589680000     100.0%      0.0%      0.0%
 flops    13 x    32 x     5            718848000     100.0%      0.0%      0.0%
 flops     5 x    32 x    13            718848000     100.0%      0.0%      0.0%
 flops    25 x    13 x   149            797559750     100.0%      0.0%      0.0%
 flops    13 x    25 x   149            797559750     100.0%      0.0%      0.0%
 flops    25 x    32 x    25            921600000     100.0%      0.0%      0.0%
 flops    13 x    21 x    13           2299752000     100.0%      0.0%      0.0%
 flops   149 x   149 x   149           2348643790     100.0%      0.0%      0.0%
 flops    13 x    13 x   149           3179604870     100.0%      0.0%      0.0%
 flops    25 x    32 x    13           3594240000     100.0%      0.0%      0.0%
 flops    13 x    32 x    25           3594240000     100.0%      0.0%      0.0%
 flops   149 x   149 x   765           7099213770     100.0%      0.0%      0.0%
 flops   765 x   149 x   149           8322044850     100.0%      0.0%      0.0%
 flops    13 x    32 x    13          14017536000     100.0%      0.0%      0.0%
 flops   765 x   149 x   765          19183675500     100.0%      0.0%      0.0%
 flops inhomo. stacks                           0       0.0%      0.0%      0.0%
 flops total                        71.229250E+09     100.0%      0.0%      0.0%
 flops max/rank                     71.229250E+09     100.0%      0.0%      0.0%
 matmuls inhomo. stacks                         0       0.0%      0.0%      0.0%
 matmuls total                            4362734     100.0%      0.0%      0.0%
 number of processed stacks                 15377     100.0%      0.0%      0.0%
 average stack size                                   283.7       0.0       0.0
 marketing flops                    76.807553E+09
 -------------------------------------------------------------------------------
 # multiplications                           4758
 max memory usage/rank               0.000000E+00
 # max total images/rank                        1
 # max 3D layers                                1
 # MPI messages exchanged                       0
 MPI messages size (bytes):
  total size                         0.000000E+00
  min size                           0.000000E+00
  max size                           0.000000E+00
  average size                       0.000000E+00
 MPI breakdown and total messages size (bytes):
             size <=      128                   0                        0
       128 < size <=     8192                   0                        0
      8192 < size <=    32768                   0                        0
     32768 < size <=   131072                   0                        0
    131072 < size <=  4194304                   0                        0
   4194304 < size <= 16777216                   0                        0
  16777216 < size                               0                        0
 -------------------------------------------------------------------------------

 MEMORY| Estimated peak process memory [MiB]                                   0

 -------------------------------------------------------------------------------
 ----                             MULTIGRID INFO                            ----
 -------------------------------------------------------------------------------
 count for grid        1:          67458          cutoff [a.u.]          150.00
 count for grid        2:          58398          cutoff [a.u.]           50.00
 count for grid        3:          78301          cutoff [a.u.]           16.67
 count for grid        4:          48290          cutoff [a.u.]            5.56
 total gridlevel count  :         252447

 -------------------------------------------------------------------------------
 -                                                                             -
 -                           R E F E R E N C E S                               -
 -                                                                             -
 -------------------------------------------------------------------------------
 
 CP2K version 6.1, the CP2K developers group (2018).
 CP2K is freely available from https://www.cp2k.org/ .

 Schuett, Ole; Messmer, Peter; Hutter, Juerg; VandeVondele, Joost. 
 Electronic Structure Calculations on Graphics Processing Units, John Wiley & Sons, Ltd, 173-190 (2016). 
 GPU-Accelerated Sparse Matrix-Matrix Multiplication for Linear Scaling Density Functional Theory.
 http://dx.doi.org/10.1002/9781118670712.ch8


 Borstnik, U; VandeVondele, J; Weber, V; Hutter, J. 
 PARALLEL COMPUTING, 40 (5-6), 47-58 (2014). 
 Sparse matrix multiplication: The distributed block-compressed sparse
 row library.
 http://dx.doi.org/10.1016/j.parco.2014.03.012


 Hutter, J; Iannuzzi, M; Schiffmann, F; VandeVondele, J. 
 WILEY INTERDISCIPLINARY REVIEWS-COMPUTATIONAL MOLECULAR SCIENCE, 4 (1), 15-25 (2014). 
 CP2K: atomistic simulations of condensed matter systems.
 http://dx.doi.org/10.1002/wcms.1159


 Grimme, S; Ehrlich, S; Goerigk, L. 
 JOURNAL OF COMPUTATIONAL CHEMISTRY, 32, 1456 (2011). 
 Effect of the damping function in dispersion corrected density functional theory.
 http://dx.doi.org/10.1002/jcc.21759


 Grimme, S; Antony, J; Ehrlich, S; Krieg, H. 
 JOURNAL OF CHEMICAL PHYSICS, 132 (15), 154104 (2010). 
 A consistent and accurate ab initio parametrization of density
 functional dispersion correction (DFT-D) for the 94 elements H-Pu.
 http://dx.doi.org/10.1063/1.3382344


 VandeVondele, J; Hutter, J. 
 JOURNAL OF CHEMICAL PHYSICS, 127 (11), 114105 (2007). 
 Gaussian basis sets for accurate calculations on molecular systems in
 gas and condensed phases.
 http://dx.doi.org/10.1063/1.2770708


 Krack, M. 
 THEORETICAL CHEMISTRY ACCOUNTS, 114 (1-3), 145-152 (2005). 
 Pseudopotentials for H to Kr optimized for gradient-corrected
 exchange-correlation functionals.
 http://dx.doi.org/10.1007/s00214-005-0655-y


 VandeVondele, J; Krack, M; Mohamed, F; Parrinello, M; Chassaing, T;
 Hutter, J. COMPUTER PHYSICS COMMUNICATIONS, 167 (2), 103-128 (2005). 
 QUICKSTEP: Fast and accurate density functional calculations using a
 mixed Gaussian and plane waves approach.
 http://dx.doi.org/10.1016/j.cpc.2004.12.014


 Frigo, M; Johnson, SG. 
 PROCEEDINGS OF THE IEEE, 93 (2), 216-231 (2005). 
 The design and implementation of FFTW3.
 http://dx.doi.org/10.1109/JPROC.2004.840301


 Kolafa, J. 
 JOURNAL OF COMPUTATIONAL CHEMISTRY, 25 (3), 335-342 (2004). 
 Time-reversible always stable predictor-corrector method for molecular dynamics of polarizable molecules.
 http://dx.doi.org/10.1002/jcc.10385


 VandeVondele, J; Hutter, J. 
 JOURNAL OF CHEMICAL PHYSICS, 118 (10), 4365-4369 (2003). 
 An efficient orbital transformation method for electronic structure
 calculations.
 http://dx.doi.org/10.1063/1.1543154


 Hartwigsen, C; Goedecker, S; Hutter, J. 
 PHYSICAL REVIEW B, 58 (7), 3641-3662 (1998). 
 Relativistic separable dual-space Gaussian pseudopotentials from H to Rn.
 http://dx.doi.org/10.1103/PhysRevB.58.3641


 Lippert, G; Hutter, J; Parrinello, M. 
 MOLECULAR PHYSICS, 92 (3), 477-487 (1997). 
 A hybrid Gaussian and plane wave density functional scheme.
 http://dx.doi.org/10.1080/002689797170220


 Perdew, JP; Burke, K; Ernzerhof, M. 
 PHYSICAL REVIEW LETTERS, 77 (18), 3865-3868 (1996). 
 Generalized gradient approximation made simple.
 http://dx.doi.org/10.1103/PhysRevLett.77.3865


 Goedecker, S; Teter, M; Hutter, J. 
 PHYSICAL REVIEW B, 54 (3), 1703-1710 (1996). 
 Separable dual-space Gaussian pseudopotentials.
 http://dx.doi.org/10.1103/PhysRevB.54.1703


 -------------------------------------------------------------------------------
 -                                                                             -
 -                                T I M I N G                                  -
 -                                                                             -
 -------------------------------------------------------------------------------
 SUBROUTINE                       CALLS  ASD         SELF TIME        TOTAL TIME
                                MAXIMUM       AVERAGE  MAXIMUM  AVERAGE  MAXIMUM
 CP2K                                 1  1.0    0.115    0.115  579.558  579.558
 cp_geo_opt                           1  2.0    0.000    0.000  577.344  577.344
 geoopt_bfgs                          1  3.0    0.039    0.039  577.344  577.344
 cp_eval_at                           6  4.0    0.001    0.001  577.236  577.236
 qs_forces                            6  5.0    0.001    0.001  577.235  577.235
 qs_energies                          6  6.0    0.000    0.000  497.532  497.532
 scf_env_do_scf                       6  7.0    0.001    0.001  460.727  460.727
 scf_env_do_scf_inner_loop           49  8.0    0.019    0.019  425.074  425.074
 rebuild_ks_matrix                   55  9.7    0.000    0.000  331.557  331.557
 qs_ks_build_kohn_sham_matrix        55 10.7    0.007    0.007  331.557  331.557
 qs_ks_update_qs_env                 55  9.0    0.001    0.001  265.989  265.989
 sum_up_and_integrate                55 11.7    0.170    0.170  228.391  228.391
 integrate_v_rspace                  55 12.7  220.181  220.181  228.221  228.221
 qs_rho_update_rho                   55  9.1    0.000    0.000  207.667  207.667
 calculate_rho_elec                  55 10.1  192.456  192.456  207.666  207.666
 qs_vxc_create                       55 11.7    0.001    0.001   90.607   90.607
 xc_vxc_pw_create                    55 12.7    3.505    3.505   90.606   90.606
 pw_transfer                       1051 13.4    0.003    0.003   71.055   71.055
 fft_wrap_pw1pw2                    941 14.5    0.016    0.016   70.470   70.470
 fft_wrap_pw1pw2_150                611 15.5    5.551    5.551   67.586   67.586
 qs_ks_update_qs_env_forces           6  6.0    0.000    0.000   65.627   65.627
 xc_rho_set_and_dset_create          55 13.7    0.613    0.613   60.250   60.250
 fft3d_s                            942 16.5   42.214   42.214   42.229   42.229
 xc_functional_eval                  55 14.7    0.000    0.000   38.936   38.936
 pbe_lda_eval                        55 15.7   38.936   38.936   38.936   38.936
 init_scf_loop                        6  8.0    0.000    0.000   35.641   35.641
 init_scf_run                         6  7.0    0.000    0.000   23.973   23.973
 scf_env_initial_rho_setup            6  8.0    0.000    0.000   23.972   23.972
 wfi_extrapolate                      6  9.0    0.001    0.001   19.743   19.743
 density_rs2pw                       55 11.1    0.002    0.002   15.074   15.074
 dbcsr_multiply_generic            4758 12.4    0.187    0.187   14.871   14.871
 build_core_hamiltonian_matrix_       6  6.0    0.000    0.000   14.074   14.074
 -------------------------------------------------------------------------------

 The number of warnings for this run is : 0
 
 -------------------------------------------------------------------------------
  **** **** ******  **  PROGRAM ENDED AT                 2020-11-20 04:03:36.138
 ***** ** ***  *** **   PROGRAM RAN ON                             B126028.local
 **    ****   ******    PROGRAM RAN BY                                   leopold
 ***** **    ** ** **   PROGRAM PROCESS ID                                 88941
  **** **  *******  **  PROGRAM STOPPED IN /private/var/folders/8y/7c7qkxcx5vxb7
                                           49rt3sw5sh40000gp/T/tmpqzndl1tn/84/15
                                           /0729-a317-4af9-b6c7-78df8e7ffd80
